/*--------------------------------*- C++ -*----------------------------------*\
| =========                 |                                                 |
| \\      /  F ield         | OpenFOAM: The Open Source CFD Toolbox           |
|  \\    /   O peration     | Version:  5.x                                   |
|   \\  /    A nd           | Web:      www.OpenFOAM.org                      |
|    \\/     M anipulation  |                                                 |
\*---------------------------------------------------------------------------*/
FoamFile
{
    version     2.0;
    format      ascii;
    class       volVectorField;
    location    "600";
    object      U;
}
// * * * * * * * * * * * * * * * * * * * * * * * * * * * * * * * * * * * * * //

dimensions      [0 1 -1 0 0 0 0];

internalField   nonuniform List<vector> 
5000
(
(0.102952 -5.7765e-05 1.08253e-12)
(0.102955 -0.000137075 4.4427e-12)
(0.10296 -0.000217195 1.55044e-11)
(0.102966 -0.000301588 8.32727e-12)
(0.102975 -0.000387981 1.78943e-12)
(0.102987 -0.000477612 4.06035e-13)
(0.103002 -0.000571699 8.06046e-13)
(0.10302 -0.000671559 4.12817e-12)
(0.103042 -0.000778625 2.37188e-11)
(0.10307 -0.000894465 1.56101e-10)
(0.103104 -0.00102081 1.68699e-11)
(0.103145 -0.00115956 6.21491e-13)
(0.103196 -0.0013128 -3.56611e-13)
(0.103257 -0.0014828 -8.11671e-13)
(0.103332 -0.00167198 -2.84385e-12)
(0.103422 -0.00188293 -1.02832e-11)
(0.10353 -0.00211833 -3.52556e-11)
(0.103658 -0.00238094 -6.57292e-11)
(0.10381 -0.00267355 9.32267e-12)
(0.103989 -0.00299892 6.63673e-11)
(0.104197 -0.00335975 3.12669e-11)
(0.104439 -0.00375856 7.75252e-12)
(0.104716 -0.00419769 -1.21036e-12)
(0.105032 -0.00467918 -8.95843e-12)
(0.105389 -0.00520461 -2.27848e-11)
(0.105789 -0.00577503 -1.10348e-11)
(0.10623 -0.00639067 -1.71551e-11)
(0.106711 -0.00705074 -6.58145e-12)
(0.107225 -0.00775312 -3.96539e-12)
(0.10776 -0.00849396 -4.57459e-12)
(0.108302 -0.00926736 -6.86971e-12)
(0.108825 -0.010065 -1.0634e-11)
(0.109298 -0.010876 -1.58878e-11)
(0.109681 -0.0116863 -2.22446e-11)
(0.109926 -0.012479 -4.23923e-11)
(0.109976 -0.013234 -1.44122e-11)
(0.109765 -0.0139283 -6.86933e-12)
(0.109221 -0.0145361 -2.77076e-12)
(0.108259 -0.0150287 -1.29012e-11)
(0.106786 -0.015375 -1.59713e-11)
(0.104695 -0.0155414 -1.08417e-11)
(0.101858 -0.0154921 -9.26401e-12)
(0.0981208 -0.0151887 -9.70364e-12)
(0.0932884 -0.0145904 -1.136e-11)
(0.0871053 -0.0136534 -1.39356e-11)
(0.0792233 -0.0123322 -1.73851e-11)
(0.0691497 -0.010581 -1.09544e-11)
(0.0561588 -0.00834402 -1.28261e-11)
(0.0391324 -0.00551098 -6.76165e-12)
(0.0162568 -0.0019235 -2.12898e-12)
(0.103521 -0.000106387 3.43008e-11)
(0.10353 -0.00025893 1.70402e-10)
(0.103551 -0.000411501 1.00266e-09)
(0.10358 -0.000570582 9.37775e-10)
(0.103618 -0.000730456 5.30657e-11)
(0.103666 -0.000893215 5.40894e-12)
(0.103725 -0.00106007 1.22042e-11)
(0.103796 -0.00123209 6.97177e-11)
(0.10388 -0.0014102 4.23373e-10)
(0.10398 -0.00159511 1.17455e-10)
(0.104097 -0.00178737 -8.18533e-12)
(0.104233 -0.00198733 -1.50151e-10)
(0.104392 -0.00219515 -2.79385e-11)
(0.104576 -0.00241085 -7.82917e-12)
(0.104789 -0.00263426 -8.17024e-12)
(0.105035 -0.0028651 -1.74719e-11)
(0.105316 -0.00310297 -3.67823e-11)
(0.105636 -0.00334742 -5.49453e-11)
(0.106001 -0.00359793 1.07718e-11)
(0.106413 -0.00385399 5.73958e-11)
(0.106877 -0.00411505 2.80218e-11)
(0.107395 -0.00438054 6.03371e-12)
(0.107971 -0.00464981 -7.97268e-12)
(0.108607 -0.00492207 -1.945e-11)
(0.109301 -0.00519623 -7.62644e-11)
(0.110051 -0.00547081 -2.87373e-11)
(0.110851 -0.00574372 -1.19065e-11)
(0.111688 -0.00601211 4.78288e-12)
(0.112545 -0.00627221 3.64009e-11)
(0.113394 -0.00651925 -2.37965e-12)
(0.114203 -0.00674736 -1.78612e-11)
(0.114926 -0.00694967 -3.11214e-11)
(0.115509 -0.00711836 -6.36209e-11)
(0.115887 -0.00724486 -3.41681e-11)
(0.115986 -0.00732007 -2.7103e-11)
(0.115722 -0.00733458 -1.97477e-11)
(0.114998 -0.00727902 -1.55101e-11)
(0.11371 -0.00714441 -1.48199e-11)
(0.111743 -0.00692256 -1.73459e-11)
(0.10897 -0.00660666 -2.32183e-11)
(0.105253 -0.00619199 -2.93258e-11)
(0.100446 -0.00567689 -3.74165e-11)
(0.0943957 -0.00506401 -4.79246e-11)
(0.0869479 -0.00436189 -5.58645e-11)
(0.0779611 -0.00358679 -3.92734e-11)
(0.0673255 -0.00276468 -3.86548e-11)
(0.0549909 -0.0019333 -4.16533e-11)
(0.0410036 -0.00114711 -2.65637e-11)
(0.0255399 -0.000490168 -1.53546e-11)
(0.00891401 -5.71149e-05 -5.04974e-12)
(0.104502 -0.000140269 3.29261e-10)
(0.10452 -0.000343115 -2.27284e-10)
(0.10456 -0.000541517 9.89128e-10)
(0.104619 -0.000747233 4.67858e-10)
(0.104695 -0.000950463 5.57589e-11)
(0.104789 -0.0011537 -5.38735e-10)
(0.104902 -0.0013577 3.37911e-11)
(0.105034 -0.00156322 5.3399e-10)
(0.105188 -0.00177086 2.86344e-10)
(0.105363 -0.0019811 1.05836e-10)
(0.105562 -0.0021943 2.36546e-11)
(0.105788 -0.00241075 5.59671e-11)
(0.106041 -0.00263066 -1.36497e-11)
(0.106324 -0.0028542 -2.20359e-11)
(0.106641 -0.00308149 -1.70182e-10)
(0.106992 -0.00331263 -2.13818e-11)
(0.107382 -0.00354765 -1.71612e-11)
(0.107812 -0.00378653 1.14733e-10)
(0.108286 -0.00402916 1.6554e-11)
(0.108805 -0.00427529 2.30051e-11)
(0.109372 -0.00452448 -1.70261e-11)
(0.109988 -0.00477604 -1.04437e-10)
(0.110652 -0.00502889 -2.79718e-11)
(0.111361 -0.00528148 -9.18882e-13)
(0.112108 -0.00553163 -1.73052e-11)
(0.112882 -0.00577642 4.32996e-11)
(0.113665 -0.00601202 2.99306e-12)
(0.114431 -0.00623368 -7.86299e-12)
(0.115145 -0.00643562 -2.12888e-11)
(0.115761 -0.00661116 -5.47474e-11)
(0.116223 -0.0067528 -3.63323e-11)
(0.116464 -0.00685241 -3.28959e-11)
(0.116407 -0.00690157 -3.13945e-11)
(0.115964 -0.00689188 -2.45721e-11)
(0.11504 -0.00681537 -1.66656e-11)
(0.113534 -0.00666499 -9.40959e-12)
(0.11134 -0.00643516 1.34032e-11)
(0.108352 -0.00612238 -2.18383e-11)
(0.104472 -0.00572597 -3.76969e-11)
(0.099609 -0.00524879 -6.42704e-11)
(0.093695 -0.00469802 -5.76833e-11)
(0.0866922 -0.00408591 -6.73521e-11)
(0.0786075 -0.00343018 -7.46307e-11)
(0.0695053 -0.00275424 -8.41529e-11)
(0.0595191 -0.00208658 -7.94268e-11)
(0.048855 -0.00145945 -6.1915e-11)
(0.0377827 -0.000906714 -4.89256e-11)
(0.026609 -0.00046232 -2.14677e-11)
(0.0156339 -0.000159033 -1.23436e-11)
(0.00509754 -7.46165e-06 -3.98018e-12)
(0.10572 -0.000156964 6.716e-10)
(0.105746 -0.000386126 9.42457e-10)
(0.105804 -0.000606473 1.06451e-09)
(0.105886 -0.000834015 4.94464e-10)
(0.105993 -0.00105553 6.85886e-11)
(0.106123 -0.00127396 -1.71154e-10)
(0.106277 -0.00148959 5.66938e-11)
(0.106455 -0.00170293 2.69536e-10)
(0.106657 -0.00191433 2.30875e-10)
(0.106885 -0.00212405 9.77185e-11)
(0.10714 -0.00233222 6.28607e-12)
(0.107423 -0.00253886 7.06925e-11)
(0.107737 -0.00274394 -3.90619e-11)
(0.108083 -0.00294734 -4.27386e-11)
(0.108463 -0.00314889 -4.3691e-11)
(0.108881 -0.00334839 -2.18783e-11)
(0.109338 -0.00354558 3.04945e-12)
(0.109837 -0.0037402 1.72342e-11)
(0.110381 -0.00393191 1.86172e-11)
(0.110972 -0.0041203 -2.1109e-12)
(0.111609 -0.0043048 -5.40086e-11)
(0.112292 -0.00448465 -9.15631e-11)
(0.113018 -0.00465872 -4.87577e-11)
(0.113776 -0.00482544 -1.0226e-11)
(0.114554 -0.00498261 1.08685e-11)
(0.115331 -0.00512733 1.19336e-11)
(0.116077 -0.00525591 1.95183e-12)
(0.116752 -0.00536386 -5.40871e-12)
(0.117306 -0.00544593 -1.23192e-11)
(0.117677 -0.00549634 -1.82373e-11)
(0.117793 -0.00550892 2.38939e-11)
(0.117572 -0.00547753 -1.15206e-11)
(0.116926 -0.00539642 -7.0834e-12)
(0.115761 -0.00526068 1.72438e-12)
(0.113982 -0.00506673 2.94031e-11)
(0.111498 -0.0048129 5.42316e-13)
(0.108227 -0.00449993 -1.06617e-11)
(0.104101 -0.00413144 -2.35326e-11)
(0.0990759 -0.00371437 -3.50815e-11)
(0.0931383 -0.00325912 -4.34942e-11)
(0.0863112 -0.0027795 -4.78196e-11)
(0.0786591 -0.00229219 -4.83378e-11)
(0.0702894 -0.00181582 -4.56692e-11)
(0.0613458 -0.00136943 -3.99032e-11)
(0.0519971 -0.000970707 -3.04532e-11)
(0.0424189 -0.000633928 -1.77978e-11)
(0.0327741 -0.000368226 -2.93172e-12)
(0.0231958 -0.000176786 -3.20134e-12)
(0.0137786 -5.78543e-05 -2.30128e-12)
(0.00457891 -4.02947e-06 -8.34921e-13)
(0.107043 -0.000161387 7.35547e-10)
(0.107076 -0.000399248 3.86084e-09)
(0.107145 -0.000625263 1.07663e-09)
(0.107243 -0.000858058 5.05973e-10)
(0.10737 -0.00108212 9.14083e-11)
(0.107523 -0.00130082 -1.04776e-10)
(0.107703 -0.00151408 7.70085e-11)
(0.107908 -0.00172231 2.46524e-10)
(0.10814 -0.00192577 2.0061e-10)
(0.1084 -0.0021247 8.31242e-11)
(0.108687 -0.00231924 -3.35016e-11)
(0.109003 -0.00250952 -2.22003e-10)
(0.10935 -0.00269562 -1.11173e-10)
(0.10973 -0.00287761 -1.84117e-10)
(0.110144 -0.00305559 -6.42153e-11)
(0.110595 -0.00322963 -3.18755e-12)
(0.111086 -0.00339978 1.49112e-11)
(0.111618 -0.00356608 7.84074e-11)
(0.112194 -0.00372847 3.21861e-12)
(0.112812 -0.00388674 5.03106e-11)
(0.113473 -0.00404045 8.9939e-11)
(0.114172 -0.00418878 -2.23628e-11)
(0.114898 -0.00433042 5.38359e-11)
(0.115639 -0.00446344 -2.52462e-11)
(0.11637 -0.0045852 -1.20127e-10)
(0.11706 -0.00469227 -6.65301e-11)
(0.117668 -0.00478046 -2.4855e-11)
(0.118139 -0.00484492 -1.17928e-11)
(0.118409 -0.00488034 -8.3473e-12)
(0.118405 -0.00488121 -7.22336e-12)
(0.118044 -0.00484218 -6.25581e-12)
(0.117238 -0.00475852 -7.29771e-12)
(0.115897 -0.00462649 -9.30744e-12)
(0.113936 -0.00444392 -1.26343e-11)
(0.111276 -0.00421055 -2.08886e-11)
(0.107852 -0.00392851 -3.8046e-11)
(0.103621 -0.00360252 -7.62436e-11)
(0.0985664 -0.00324001 -6.40596e-11)
(0.0927031 -0.00285097 -7.44185e-11)
(0.0860807 -0.00244749 -7.59046e-11)
(0.0787836 -0.00204303 -7.16798e-11)
(0.0709267 -0.00165136 -5.86928e-11)
(0.0626469 -0.00128546 -4.90029e-11)
(0.0540923 -0.000956325 -4.06114e-11)
(0.0454089 -0.000672136 -3.28033e-11)
(0.0367289 -0.000437789 -2.55082e-11)
(0.0281625 -0.000254986 -1.88641e-11)
(0.0197933 -0.000123056 -1.30058e-11)
(0.0116782 -4.0371e-05 -7.59049e-12)
(0.00384993 -2.06116e-06 -2.47752e-12)
(0.108398 -0.00015837 7.59639e-10)
(0.108434 -0.000393453 1.98893e-09)
(0.10851 -0.000614813 1.08548e-09)
(0.108618 -0.000842448 5.22083e-10)
(0.108756 -0.00105964 1.56342e-10)
(0.108923 -0.00127008 1.86623e-10)
(0.109118 -0.00147341 1.22125e-10)
(0.10934 -0.00166999 2.26627e-10)
(0.109589 -0.0018601 1.91721e-10)
(0.109865 -0.00204398 1.35795e-10)
(0.11017 -0.00222184 5.59193e-11)
(0.110505 -0.00239389 -1.04472e-10)
(0.11087 -0.00256032 -7.27453e-11)
(0.111269 -0.00272135 3.42781e-11)
(0.111703 -0.00287717 1.0425e-10)
(0.112174 -0.00302797 4.84701e-11)
(0.112684 -0.00317392 5.17949e-11)
(0.113236 -0.00331509 -2.57913e-11)
(0.11383 -0.00345146 9.03801e-11)
(0.114464 -0.00358273 6.94082e-11)
(0.115134 -0.00370831 7.1751e-11)
(0.115832 -0.00382716 1.12949e-10)
(0.116543 -0.00393765 4.88351e-11)
(0.117243 -0.00403749 2.19302e-11)
(0.1179 -0.0041237 5.43517e-12)
(0.118472 -0.0041926 3.8871e-11)
(0.118905 -0.00423994 -8.47588e-12)
(0.119134 -0.00426109 -7.36954e-12)
(0.119086 -0.00425132 -7.1241e-12)
(0.118678 -0.00420618 -7.9081e-12)
(0.117827 -0.00412187 -1.0096e-11)
(0.116447 -0.00399569 -1.49395e-11)
(0.11446 -0.00382647 -2.26016e-11)
(0.111796 -0.00361486 -3.39992e-11)
(0.108405 -0.00336368 -5.08528e-11)
(0.104257 -0.00307797 -7.44858e-11)
(0.0993518 -0.0027649 -8.73171e-11)
(0.0937175 -0.00243352 -9.09353e-11)
(0.087413 -0.00209416 -8.52853e-11)
(0.0805257 -0.00175771 -8.32604e-11)
(0.0731644 -0.00143478 -8.12624e-11)
(0.0654517 -0.00113478 -8.26004e-11)
(0.0575137 -0.00086527 -8.89701e-11)
(0.0494701 -0.000631457 -8.11457e-11)
(0.0414264 -0.0004361 -6.06274e-11)
(0.0334691 -0.00027968 -4.46988e-11)
(0.0256634 -0.000160809 -3.14972e-11)
(0.0180547 -7.69143e-05 -1.98046e-11)
(0.0106712 -2.51588e-05 -8.88441e-12)
(0.00352762 -1.52857e-06 1.71676e-12)
(0.109739 -0.000151199 -1.46322e-09)
(0.109777 -0.000376778 2.82596e-09)
(0.109856 -0.000587722 1.24269e-09)
(0.109969 -0.000804497 1.29256e-09)
(0.110114 -0.00101004 2.57576e-10)
(0.110288 -0.00120823 1.89269e-10)
(0.11049 -0.00139854 1.53101e-10)
(0.11072 -0.00158137 2.14489e-10)
(0.110977 -0.00175701 1.92438e-10)
(0.111262 -0.00192576 1.74762e-10)
(0.111576 -0.00208793 3.01583e-10)
(0.11192 -0.00224383 -2.25789e-11)
(0.112295 -0.00239377 -2.55442e-11)
(0.112703 -0.00253807 7.60011e-11)
(0.113147 -0.00267705 2.31766e-10)
(0.113629 -0.002811 2.20236e-10)
(0.114151 -0.00294014 9.28446e-11)
(0.114713 -0.00306459 4.6545e-11)
(0.115314 -0.00318422 5.17736e-11)
(0.115952 -0.00329864 -9.16225e-11)
(0.116617 -0.00340702 -4.69867e-11)
(0.117295 -0.00350798 3.82966e-11)
(0.117964 -0.00359955 3.45222e-11)
(0.118594 -0.00367905 2.57273e-11)
(0.119141 -0.00374319 2.7015e-11)
(0.119554 -0.00378813 1.03212e-11)
(0.119768 -0.00380967 4.04386e-12)
(0.11971 -0.00380358 5.65389e-12)
(0.119302 -0.00376589 -2.89214e-11)
(0.11846 -0.00369329 -3.61516e-11)
(0.117105 -0.00358356 -1.93268e-11)
(0.115161 -0.0034359 -1.23359e-11)
(0.112568 -0.00325119 -7.06356e-12)
(0.109281 -0.00303225 -7.53502e-13)
(0.10528 -0.00278379 -1.71685e-11)
(0.100569 -0.00251228 -9.40156e-11)
(0.0951828 -0.00222558 -1.24637e-10)
(0.0891812 -0.00193245 -1.05184e-10)
(0.0826481 -0.00164185 -9.33155e-11)
(0.0756848 -0.00136225 -8.54153e-11)
(0.0684024 -0.00110104 -7.92124e-11)
(0.0609129 -0.000864006 -7.36767e-11)
(0.0533224 -0.000655119 -6.79733e-11)
(0.0457244 -0.000476523 -6.1084e-11)
(0.0381969 -0.000328732 -4.01198e-11)
(0.0308011 -0.000210961 -2.75345e-11)
(0.0235818 -0.000121498 -1.86126e-11)
(0.0165694 -5.81894e-05 -8.85817e-12)
(0.00978241 -1.90144e-05 -7.30273e-12)
(0.00322979 -1.05014e-06 3.14626e-13)
(0.111038 -0.000142189 -2.15871e-10)
(0.111078 -0.000355104 2.27938e-09)
(0.111158 -0.000553232 1.26458e-09)
(0.111273 -0.000756831 9.21673e-10)
(0.11142 -0.000949087 3.1019e-10)
(0.111597 -0.00113394 2.43385e-10)
(0.111802 -0.00131075 3.68935e-10)
(0.112035 -0.00147998 2.38136e-10)
(0.112295 -0.00164191 1.95967e-10)
(0.112584 -0.00179689 1.69138e-10)
(0.112902 -0.00194527 1.58053e-10)
(0.11325 -0.00208742 -1.07981e-10)
(0.11363 -0.0022237 -5.87007e-11)
(0.114044 -0.00235449 -9.12574e-11)
(0.114495 -0.00248011 2.63963e-11)
(0.114984 -0.00260088 1.15562e-10)
(0.115512 -0.00271696 7.0367e-11)
(0.11608 -0.00282838 -1.02243e-10)
(0.116683 -0.00293486 -3.73178e-11)
(0.117316 -0.00303577 -7.7548e-12)
(0.117965 -0.00312997 1.46679e-10)
(0.118609 -0.00321576 8.85401e-11)
(0.11922 -0.00329082 4.80182e-11)
(0.119756 -0.00335222 -1.11353e-11)
(0.120167 -0.00339651 -3.62573e-11)
(0.120391 -0.00341993 -5.54711e-11)
(0.120358 -0.00341865 -8.36816e-11)
(0.119989 -0.0033891 -8.51495e-11)
(0.119206 -0.00332835 -6.96274e-11)
(0.11793 -0.00323443 -3.39459e-11)
(0.116091 -0.0031067 2.19441e-11)
(0.11363 -0.00294607 -9.15735e-12)
(0.110507 -0.00275514 -1.36477e-11)
(0.106705 -0.00253816 -1.71665e-12)
(0.10223 -0.00230088 -4.41772e-11)
(0.0971167 -0.00205015 -9.02573e-11)
(0.0914218 -0.00179351 -1.07066e-10)
(0.0852243 -0.00153856 -1.22871e-10)
(0.0786177 -0.0012924 -9.51334e-11)
(0.0717035 -0.00106119 -7.13093e-11)
(0.0645838 -0.000849748 -4.83949e-11)
(0.057355 -0.000661393 -2.57168e-11)
(0.0501026 -0.000497986 7.01753e-12)
(0.042899 -0.000360078 2.46197e-11)
(0.0358015 -0.000247163 2.88077e-11)
(0.0288537 -0.000157961 4.37416e-11)
(0.0220864 -9.06849e-05 3.23129e-11)
(0.0155196 -4.33468e-05 2.95726e-11)
(0.00916487 -1.41639e-05 2.47462e-11)
(0.00302724 -8.20733e-07 1.19853e-12)
(0.112284 -0.000132827 3.074e-10)
(0.112324 -0.000332234 1.91779e-09)
(0.112404 -0.000517202 1.24196e-09)
(0.11252 -0.000707327 7.89715e-10)
(0.112667 -0.000886411 3.55923e-10)
(0.112844 -0.00105834 2.88792e-10)
(0.11305 -0.00122246 3.56291e-10)
(0.113283 -0.00137921 2.53855e-10)
(0.113545 -0.00152891 2.01796e-10)
(0.113835 -0.00167193 1.6774e-10)
(0.114154 -0.00180865 1.32442e-10)
(0.114505 -0.00193944 2.13482e-10)
(0.114888 -0.0020647 -2.44484e-11)
(0.115306 -0.00218481 -2.33963e-11)
(0.115761 -0.00230011 3.01027e-11)
(0.116255 -0.00241083 7.19144e-11)
(0.116788 -0.00251709 4.36747e-11)
(0.117357 -0.00261874 1.6687e-12)
(0.117957 -0.00271533 -2.58767e-11)
(0.118577 -0.00280595 9.24347e-11)
(0.119198 -0.00288916 7.7133e-11)
(0.119794 -0.00296296 8.30422e-11)
(0.120325 -0.00302475 3.31266e-11)
(0.120745 -0.00307146 -1.30281e-11)
(0.120994 -0.00309967 -5.07529e-11)
(0.121004 -0.00310587 -5.49732e-11)
(0.1207 -0.00308675 -6.22276e-11)
(0.120005 -0.00303958 -5.76096e-11)
(0.118842 -0.00296249 -4.23616e-11)
(0.117142 -0.00285481 -2.30767e-11)
(0.114849 -0.00271725 2.89765e-11)
(0.111923 -0.00255206 -1.03489e-11)
(0.108346 -0.00236294 -1.75607e-11)
(0.104125 -0.00215491 -3.23595e-11)
(0.0992887 -0.00193395 -5.14288e-11)
(0.0938913 -0.0017066 -6.50514e-11)
(0.0880052 -0.00147946 -7.35451e-11)
(0.0817167 -0.0012587 -7.50405e-11)
(0.0751196 -0.00104968 -6.80876e-11)
(0.0683085 -0.000856634 -5.79457e-11)
(0.0613735 -0.000682574 -4.74554e-11)
(0.0543955 -0.000529289 -3.84475e-11)
(0.0474439 -0.000397474 -3.18286e-11)
(0.0405753 -0.00028693 -7.23624e-12)
(0.0338336 -0.000196793 -5.31669e-12)
(0.0272513 -0.000125745 -2.70186e-12)
(0.020851 -7.22002e-05 -1.76826e-12)
(0.0146472 -3.45149e-05 -2.29386e-12)
(0.00864787 -1.12725e-05 -3.66507e-12)
(0.00285591 -6.37482e-07 -2.21007e-12)
(0.113474 -0.000123909 4.89173e-10)
(0.113513 -0.000310243 1.65001e-09)
(0.113593 -0.000482749 1.20196e-09)
(0.113708 -0.000660123 7.53594e-10)
(0.113855 -0.000826979 4.05178e-10)
(0.114032 -0.00098707 3.25025e-10)
(0.114237 -0.00113974 3.48653e-10)
(0.11447 -0.00128544 2.64066e-10)
(0.114732 -0.00142449 2.12589e-10)
(0.115022 -0.00155725 1.87364e-10)
(0.115343 -0.00168411 1.9334e-10)
(0.115695 -0.00180546 3.56875e-10)
(0.11608 -0.00192167 5.46141e-11)
(0.116502 -0.00203309 1.05064e-11)
(0.116961 -0.00214003 3.06861e-11)
(0.117459 -0.00224264 4.42068e-11)
(0.117994 -0.00234089 1.70943e-11)
(0.118561 -0.00243448 -1.34855e-10)
(0.119153 -0.00252271 -2.06391e-11)
(0.119751 -0.0026044 8.5817e-13)
(0.120334 -0.00267785 4.26351e-11)
(0.120865 -0.00274079 4.47007e-11)
(0.1213 -0.00279048 1.65863e-11)
(0.121583 -0.00282382 -1.47157e-11)
(0.121649 -0.00283758 -3.84237e-11)
(0.121426 -0.00282868 -4.74109e-11)
(0.120838 -0.00279449 -4.92676e-11)
(0.11981 -0.00273315 -4.34274e-11)
(0.118275 -0.00264388 -3.22312e-11)
(0.116175 -0.00252713 -2.08746e-11)
(0.113469 -0.00238474 -1.52691e-11)
(0.110138 -0.00221987 -1.67769e-11)
(0.106183 -0.00203687 -2.40338e-11)
(0.101631 -0.00184098 -3.42024e-11)
(0.0965279 -0.00163793 -4.4616e-11)
(0.0909412 -0.00143357 -5.23716e-11)
(0.08495 -0.00123341 -5.63176e-11)
(0.0786414 -0.00104227 -5.62653e-11)
(0.0721043 -0.000864043 -5.29216e-11)
(0.0654242 -0.000701581 -4.77567e-11)
(0.058679 -0.000556684 -4.20752e-11)
(0.0519364 -0.000430203 -3.67187e-11)
(0.0452528 -0.000322192 -3.20796e-11)
(0.0386731 -0.000232096 -2.82095e-11)
(0.0322317 -0.00015893 -2.60136e-11)
(0.0259533 -0.000101432 -2.52561e-11)
(0.0198548 -5.81934e-05 -2.57547e-11)
(0.0139467 -2.78088e-05 -2.72749e-11)
(0.0082344 -9.08441e-06 -1.56467e-11)
(0.00271958 -5.20411e-07 -5.04374e-12)
(0.114611 -0.000115791 5.28525e-10)
(0.11465 -0.000290093 3.08712e-09)
(0.114729 -0.000451292 1.20375e-09)
(0.114844 -0.000617092 1.62032e-09)
(0.11499 -0.000772983 9.79506e-10)
(0.115166 -0.000922539 4.21981e-10)
(0.11537 -0.00106513 3.53824e-10)
(0.115603 -0.00120121 2.84008e-10)
(0.115864 -0.00133108 2.86659e-10)
(0.116155 -0.0014551 5.14743e-10)
(0.116476 -0.00157365 2.63415e-10)
(0.11683 -0.0016871 2.6009e-10)
(0.117219 -0.00179582 9.44859e-11)
(0.117644 -0.0019001 6.24297e-11)
(0.118106 -0.00200017 -4.79874e-12)
(0.118606 -0.00209609 5.21962e-11)
(0.119141 -0.00218768 6.44677e-12)
(0.119703 -0.00227444 -2.05484e-11)
(0.120279 -0.00235544 -1.15574e-11)
(0.120848 -0.00242924 3.04574e-11)
(0.121379 -0.00249391 1.43223e-10)
(0.12183 -0.00254701 -4.88503e-13)
(0.122151 -0.00258576 -8.74249e-11)
(0.122279 -0.00260717 -6.48628e-11)
(0.122145 -0.00260832 -1.2451e-10)
(0.121675 -0.00258666 -1.08159e-10)
(0.120797 -0.0025403 -8.59101e-11)
(0.11944 -0.00246826 -5.85616e-11)
(0.117548 -0.0023707 -4.318e-11)
(0.115077 -0.00224902 -7.43651e-11)
(0.112003 -0.00210586 -2.74657e-11)
(0.108323 -0.00194493 -2.58938e-11)
(0.104058 -0.00177081 -2.67392e-11)
(0.0992476 -0.00158858 -2.7986e-11)
(0.0939523 -0.00140348 -2.69988e-11)
(0.0882446 -0.0012205 -2.13144e-11)
(0.0822056 -0.00104409 -8.73217e-12)
(0.0759196 -0.000877932 1.28319e-11)
(0.0694683 -0.000724798 4.59077e-11)
(0.0629276 -0.000586546 9.34881e-11)
(0.0563647 -0.000464196 1.13872e-10)
(0.0498364 -0.000358036 1.2097e-10)
(0.0433891 -0.000267783 9.64755e-11)
(0.0370593 -0.000192737 1.01761e-10)
(0.0308743 -0.000131917 7.04614e-11)
(0.0248535 -8.41772e-05 5.46571e-11)
(0.0190101 -4.82952e-05 4.12723e-11)
(0.0133519 -2.30802e-05 3.04881e-11)
(0.00788276 -7.53988e-06 2.45803e-11)
(0.00260333 -4.29769e-07 3.40121e-12)
(0.1157 -0.000108573 5.71611e-10)
(0.115739 -0.000272104 1.38607e-09)
(0.115818 -0.000423276 1.1648e-09)
(0.115932 -0.000578792 1.29697e-09)
(0.116077 -0.000725022 8.64106e-10)
(0.116252 -0.000865336 4.74621e-10)
(0.116456 -0.000999142 3.60672e-10)
(0.116688 -0.00112688 2.99893e-10)
(0.116949 -0.00124885 3.1404e-10)
(0.117241 -0.00136539 4.20863e-10)
(0.117564 -0.00147687 2.80819e-10)
(0.11792 -0.00158363 2.26129e-10)
(0.118311 -0.001686 1.15466e-10)
(0.11874 -0.00178423 7.97035e-11)
(0.119205 -0.00187845 9.88557e-11)
(0.119707 -0.00196861 4.41411e-11)
(0.120239 -0.00205435 3.71953e-12)
(0.120791 -0.00213498 -1.97902e-11)
(0.121344 -0.00220932 -1.98898e-11)
(0.121873 -0.00227575 -2.29e-11)
(0.12234 -0.00233215 5.04875e-11)
(0.122698 -0.00237599 -1.2675e-10)
(0.122888 -0.00240454 -8.49531e-11)
(0.122845 -0.00241505 -1.83359e-10)
(0.122499 -0.00240501 -1.31956e-10)
(0.121775 -0.00237247 -1.2173e-10)
(0.120605 -0.00231625 -9.09797e-11)
(0.118929 -0.00223621 -6.77753e-11)
(0.116702 -0.00213332 -5.17401e-11)
(0.113893 -0.00200968 -3.95827e-11)
(0.110494 -0.00186845 -2.94143e-11)
(0.10652 -0.0017136 -1.90583e-11)
(0.102003 -0.00154964 -6.19978e-12)
(0.0969966 -0.00138131 1.2894e-11)
(0.0915661 -0.00121319 4.27452e-11)
(0.0857874 -0.00104945 3.65682e-11)
(0.07974 -0.000893607 4.48232e-11)
(0.0735031 -0.00074843 6.43031e-11)
(0.0671508 -0.000615856 7.80679e-11)
(0.0607501 -0.000497065 8.59101e-11)
(0.0543589 -0.000392561 8.11932e-11)
(0.0480252 -0.000302305 7.54535e-11)
(0.0417879 -0.000225839 6.8206e-11)
(0.0356766 -0.000162416 5.99526e-11)
(0.0297137 -0.000111105 5.09403e-11)
(0.0239147 -7.08753e-05 4.17659e-11)
(0.0182899 -4.06581e-05 3.27273e-11)
(0.0128453 -1.94324e-05 2.39264e-11)
(0.00758345 -6.34973e-06 1.51654e-11)
(0.00250447 -3.6354e-07 5.42243e-12)
(0.116747 -0.000102225 5.67005e-10)
(0.116786 -0.000256244 1.34623e-09)
(0.116865 -0.000398614 1.07676e-09)
(0.116978 -0.000545087 -4.32815e-11)
(0.117123 -0.000682867 7.33918e-10)
(0.117297 -0.000815112 4.21513e-10)
(0.117501 -0.000941275 -6.01713e-11)
(0.117733 -0.00106178 -1.18259e-10)
(0.117995 -0.00117692 2.71854e-10)
(0.118287 -0.00128702 3.58813e-10)
(0.118612 -0.00139242 2.78078e-10)
(0.118971 -0.00149344 2.12875e-10)
(0.119366 -0.00159037 1.3342e-10)
(0.119797 -0.00168337 1.13155e-10)
(0.120265 -0.00177249 1.65541e-10)
(0.120766 -0.00185754 -6.55482e-11)
(0.121292 -0.00193799 -4.01313e-11)
(0.121828 -0.00201296 -1.24562e-10)
(0.122352 -0.00208107 -4.59683e-11)
(0.12283 -0.0021405 -2.83329e-11)
(0.123221 -0.00218904 -2.52473e-11)
(0.123471 -0.00222417 -7.74884e-11)
(0.123518 -0.00224329 -4.26826e-11)
(0.123292 -0.00224397 -1.52482e-11)
(0.122723 -0.00222417 -9.51118e-11)
(0.121742 -0.00218255 -9.78463e-11)
(0.120286 -0.00211863 -8.4174e-11)
(0.118306 -0.00203297 -6.76825e-11)
(0.115766 -0.0019272 -5.28999e-11)
(0.112654 -0.0018039 -3.99652e-11)
(0.108974 -0.0016665 -2.79452e-11)
(0.104752 -0.00151902 -1.62128e-11)
(0.100034 -0.00136571 -4.27773e-12)
(0.0948793 -0.00121084 7.42051e-12)
(0.0893572 -0.00105834 1.66257e-11)
(0.0835431 -0.000911612 1.86168e-11)
(0.0775133 -0.000773425 1.72609e-11)
(0.0713407 -0.000645814 2.93113e-11)
(0.0650925 -0.000530118 5.62418e-11)
(0.0588274 -0.000427046 5.07984e-11)
(0.0525957 -0.000336778 4.35209e-11)
(0.0464384 -0.00025908 3.36955e-11)
(0.0403881 -0.000193413 2.09603e-11)
(0.0344697 -0.000139038 1.52963e-11)
(0.0287014 -9.50934e-05 1.70733e-11)
(0.0230961 -6.06586e-05 2.62663e-11)
(0.0176619 -3.48002e-05 1.98871e-11)
(0.0124033 -1.66345e-05 1.37472e-11)
(0.00732218 -5.43722e-06 7.98269e-12)
(0.0024181 -3.11004e-07 2.58603e-12)
(0.117759 -9.66596e-05 7.19671e-10)
(0.117798 -0.000242317 2.54549e-09)
(0.117876 -0.000376977 1.10186e-09)
(0.117989 -0.000515518 -3.46258e-10)
(0.118133 -0.000645908 6.50733e-10)
(0.118308 -0.000771098 3.84813e-10)
(0.118511 -0.000890594 3.07625e-11)
(0.118744 -0.0010048 4.9909e-11)
(0.119007 -0.00111399 2.51948e-10)
(0.119301 -0.00121849 3.17546e-10)
(0.119628 -0.00131861 2.68841e-10)
(0.11999 -0.00141463 2.05852e-10)
(0.120388 -0.00150678 1.42336e-10)
(0.120823 -0.00159517 1.17065e-10)
(0.121292 -0.00167973 1.11257e-10)
(0.12179 -0.00176011 3.72276e-12)
(0.122305 -0.00183564 -3.40299e-11)
(0.12282 -0.00190523 -7.08273e-11)
(0.123305 -0.00196735 -4.2444e-11)
(0.123723 -0.00202004 -2.56359e-11)
(0.124026 -0.00206105 -1.69514e-11)
(0.124155 -0.00208794 -6.05261e-12)
(0.124046 -0.00209834 -3.50454e-11)
(0.123628 -0.00209019 -5.56903e-11)
(0.122832 -0.00206194 -7.52694e-11)
(0.121594 -0.00201286 -8.00405e-11)
(0.119861 -0.00194308 -7.23065e-11)
(0.117593 -0.00185376 -5.81577e-11)
(0.114769 -0.00174699 -3.99677e-11)
(0.111386 -0.00162567 -1.5332e-11)
(0.107462 -0.00149332 2.26457e-11)
(0.103036 -0.00135382 1.4624e-11)
(0.0981584 -0.00121108 2.21511e-11)
(0.0928938 -0.00106886 3.49894e-11)
(0.0873129 -0.000930464 4.03932e-11)
(0.0814889 -0.000798669 5.35251e-11)
(0.0754937 -0.000675606 5.91648e-11)
(0.0693942 -0.000562768 6.79113e-11)
(0.0632506 -0.000461053 7.72613e-11)
(0.057115 -0.00037085 7.88489e-11)
(0.051031 -0.00029213 7.1532e-11)
(0.0450339 -0.000224551 5.78547e-11)
(0.0391515 -0.000167544 4.72097e-11)
(0.0334048 -0.000120401 3.83877e-11)
(0.0278091 -8.23327e-05 3.122e-11)
(0.0223749 -5.2517e-05 2.48001e-11)
(0.0171087 -3.01309e-05 1.87043e-11)
(0.0120141 -1.44048e-05 1.29624e-11)
(0.00709208 -4.70961e-06 7.56012e-12)
(0.00234203 -2.69877e-07 2.46163e-12)
(0.118741 -9.17684e-05 6.37809e-10)
(0.118779 -0.00023007 1.76765e-09)
(0.118857 -0.000357961 9.66403e-10)
(0.11897 -0.000489526 -1.48796e-10)
(0.119114 -0.000613428 1.01737e-09)
(0.119289 -0.000732422 3.95318e-10)
(0.119493 -0.000846067 -3.86264e-10)
(0.119726 -0.000954748 8.66604e-11)
(0.119991 -0.00105873 2.06813e-10)
(0.120287 -0.00115831 1.88683e-10)
(0.120617 -0.00125378 5.36066e-10)
(0.120982 -0.00134539 2.2553e-10)
(0.121383 -0.0014333 1.49724e-10)
(0.12182 -0.00151753 1.12677e-10)
(0.122289 -0.00159791 8.48109e-11)
(0.122781 -0.00167395 1.94064e-11)
(0.123281 -0.00174481 -2.7445e-11)
(0.123767 -0.00180922 -3.98489e-11)
(0.124206 -0.00186553 -2.41112e-11)
(0.124553 -0.00191171 6.53944e-12)
(0.124757 -0.00194552 7.28747e-11)
(0.124754 -0.00196468 -5.99854e-12)
(0.124479 -0.0019671 -6.48372e-11)
(0.123862 -0.0019511 -1.40702e-10)
(0.122837 -0.00191568 -9.66749e-11)
(0.121348 -0.00186061 -7.85964e-11)
(0.11935 -0.00178659 -6.38082e-11)
(0.116813 -0.00169523 -4.66287e-11)
(0.113729 -0.00158893 -2.55541e-11)
(0.110107 -0.00147076 6.97355e-13)
(0.105976 -0.00134419 3.28661e-11)
(0.10138 -0.00121286 6.70973e-11)
(0.096377 -0.0010803 9.29021e-11)
(0.0910329 -0.000949755 5.55125e-11)
(0.0854179 -0.000824002 5.41067e-11)
(0.079602 -0.00070526 4.90964e-11)
(0.0736524 -0.000595167 7.17409e-11)
(0.0676301 -0.000494806 7.24306e-11)
(0.0615893 -0.00040476 1.05838e-10)
(0.055576 -0.000325194 1.00248e-10)
(0.0496286 -0.00025595 8.06318e-11)
(0.0437776 -0.000196625 6.40975e-11)
(0.0380469 -0.000146654 4.86032e-11)
(0.0324544 -0.000105368 3.3303e-11)
(0.0270131 -7.20482e-05 1.78394e-11)
(0.0217315 -4.59577e-05 1.94193e-12)
(0.0166152 -2.63703e-05 -1.46778e-11)
(0.0116667 -1.26091e-05 -9.72158e-12)
(0.00688672 -4.1237e-06 -1.24868e-11)
(0.00227411 -2.36515e-07 -4.71415e-12)
(0.119696 -8.74461e-05 5.58133e-10)
(0.119734 -0.000219249 1.38715e-09)
(0.119813 -0.000341161 8.94167e-10)
(0.119926 -0.00046656 2.40037e-10)
(0.12007 -0.000584729 7.80975e-10)
(0.120245 -0.000698248 3.67177e-10)
(0.12045 -0.00080672 7.26537e-11)
(0.120685 -0.000910513 8.94679e-11)
(0.120951 -0.00100988 1.77189e-10)
(0.121249 -0.0011051 2.02476e-10)
(0.121582 -0.00119643 3.123e-10)
(0.121951 -0.00128409 2.24232e-10)
(0.122355 -0.00136817 1.51391e-10)
(0.122793 -0.00144861 1.0703e-10)
(0.123259 -0.00152509 7.20261e-11)
(0.123741 -0.00159701 2.76724e-11)
(0.124222 -0.00166335 -5.64777e-12)
(0.124672 -0.00172273 -2.51533e-11)
(0.125055 -0.00177338 -3.93982e-11)
(0.125322 -0.00181326 -8.46878e-11)
(0.125415 -0.00184021 6.53918e-12)
(0.125272 -0.00185216 8.10922e-11)
(0.124823 -0.00184733 -4.76876e-11)
(0.124003 -0.00182446 -8.47185e-11)
(0.122751 -0.00178303 -8.019e-11)
(0.121018 -0.0017233 -6.84288e-11)
(0.118768 -0.00164641 -5.39351e-11)
(0.115983 -0.00155429 -3.6504e-11)
(0.112665 -0.00144958 -1.63523e-11)
(0.108833 -0.00133534 5.63242e-12)
(0.104524 -0.00121493 2.74077e-11)
(0.0997888 -0.00109167 4.49355e-11)
(0.0946882 -0.000968724 5.25163e-11)
(0.0892885 -0.000848858 5.65057e-11)
(0.0836578 -0.000734372 5.84342e-11)
(0.0778628 -0.000627041 5.93996e-11)
(0.0719656 -0.000528118 6.083e-11)
(0.066022 -0.00043837 6.45266e-11)
(0.0600807 -0.000358152 6.67177e-11)
(0.0541827 -0.00028748 6.46074e-11)
(0.0483617 -0.000226113 5.93641e-11)
(0.0426445 -0.000173623 5.25563e-11)
(0.0370517 -0.00012946 4.50635e-11)
(0.0315987 -9.30002e-05 3.74708e-11)
(0.0262966 -6.35888e-05 3.01692e-11)
(0.0211527 -4.05629e-05 2.33965e-11)
(0.0161712 -2.32773e-05 1.72707e-11)
(0.0113542 -1.1132e-05 1.18189e-11)
(0.0067019 -3.64136e-06 6.87116e-12)
(0.00221297 -2.09137e-07 2.24072e-12)
(0.12063 -8.36003e-05 4.87273e-10)
(0.120668 -0.000209623 1.15944e-09)
(0.120747 -0.000326219 8.38688e-10)
(0.12086 -0.000446127 4.02693e-10)
(0.121004 -0.000559196 6.3379e-10)
(0.12118 -0.000667838 3.42787e-10)
(0.121386 -0.0007717 9.05292e-11)
(0.121622 -0.000871131 9.72528e-11)
(0.121891 -0.000966373 1.61752e-10)
(0.122192 -0.00105769 5.82875e-10)
(0.122528 -0.00114531 2.69661e-10)
(0.1229 -0.00122939 2.13415e-10)
(0.123306 -0.00130996 1.49138e-10)
(0.123743 -0.00138686 1.02619e-10)