/*--------------------------------*- C++ -*----------------------------------*\
| =========                 |                                                 |
| \\      /  F ield         | OpenFOAM: The Open Source CFD Toolbox           |
|  \\    /   O peration     | Version:  2.3.1                                 |
|   \\  /    A nd           | Web:      www.OpenFOAM.org                      |
|    \\/     M anipulation  |                                                 |
\*---------------------------------------------------------------------------*/
FoamFile
{
    version     2.0;
    format      ascii;
    class       volScalarField;
    object      rho;
}
// * * * * * * * * * * * * * * * * * * * * * * * * * * * * * * * * * * * * * //

dimensions      [1 -3 0 0 0 0 0];

internalField   nonuniform List<scalar>
(
0.00678393
0.00680314
0.0068418
0.00688094
0.00692053
0.00696059
0.0070011
0.00704209
0.00708357
0.00712553
0.007168
0.00721097
0.00725447
0.00729849
0.00734305
0.00738815
0.00743382
0.00748005
0.00752686
0.00757426
0.00762226
0.00767087
0.00772011
0.00776998
0.0078205
0.00787169
0.00792354
0.00797609
0.00802933
0.0080833
0.00813799
0.00819343
0.00824963
0.0083066
0.00836437
0.00842294
0.00848234
0.00854259
0.0086037
0.00866569
0.00872858
0.00879238
0.00885713
0.00892284
0.00898953
0.00905722
0.00912595
0.00919572
0.00926657
0.00933851
0.00941159
0.00948582
0.00956122
0.00963784
0.00971569
0.00979481
0.00987523
0.00995699
0.0100401
0.0101246
0.0102106
0.010298
0.0103869
0.0104774
0.0105695
0.0106632
0.0107586
0.0108557
0.0109545
0.0110552
0.0111578
0.0112623
0.0113687
0.0114772
0.0115878
0.0117005
0.0118155
0.0119327
0.0120523
0.0121742
0.0122987
0.0124258
0.0125555
0.012688
0.0128232
0.0129614
0.0131026
0.0132469
0.0133945
0.0135453
0.0136996
0.0138574
0.014019
0.0141843
0.0143536
0.0145269
0.0147045
0.0148865
0.0150731
0.0152644
0.0154606
0.0156619
0.0158686
0.0160808
0.0162987
0.0165226
0.0167527
0.0169894
0.0172328
0.0174833
0.0177412
0.0180068
0.0182805
0.0185626
0.0188536
0.0191539
0.0194639
0.019784
0.0201149
0.0204571
0.020811
0.0211775
0.0215571
0.0219505
0.0223586
0.0227821
0.023222
0.0236792
0.0241548
0.0246499
0.0251657
0.0257036
0.0262649
0.0268513
0.0274645
0.0281064
0.028779
0.0294846
0.0302256
0.0310049
0.0318254
0.0326905
0.033604
0.0345701
0.0355933
0.036679
0.0378329
0.0390619
0.0403735
0.0417761
0.0432798
);

boundaryField
{
    axis
    {
        type            empty;
    }

    inlet
    {    type           zeroGradient;
    }

    wall
    {
        type            zeroGradient;
        
    }
    outlet
    {
        type            zeroGradient;
    }
   front
    {
        type            wedge;
    }
   back
    {
        type            wedge;
    }

}

// ************************************************************************* //
