/*--------------------------------*- C++ -*----------------------------------*\
| =========                 |                                                 |
| \\      /  F ield         | OpenFOAM: The Open Source CFD Toolbox           |
|  \\    /   O peration     | Version:  2.3.1                                 |
|   \\  /    A nd           | Web:      www.OpenFOAM.org                      |
|    \\/     M anipulation  |                                                 |
\*---------------------------------------------------------------------------*/
FoamFile
{
    version     2.0;
    format      ascii;
    class       volScalarField;
    object      T;
}
// * * * * * * * * * * * * * * * * * * * * * * * * * * * * * * * * * * * * * //

dimensions      [0 0 0 1 0 0 0];

internalField   nonuniform List<scalar>
151
(
1773
1763
1753
1743
1733
1723
1713
1703
1693
1683
1673
1663
1653
1643
1633
1623
1613
1603
1593
1583
1573
1563
1553
1543
1533
1523
1513
1503
1493
1483
1473
1463
1453
1443
1433
1423
1413
1403
1393
1383
1373
1363
1353
1343
1333
1323
1313
1303
1293
1283
1273
1263
1253
1243
1233
1223
1213
1203
1193
1183
1173
1163
1153
1143
1133
1123
1113
1103
1093
1083
1073
1063
1053
1043
1033
1023
1013
1003
993
983
973
963
953
943
933
923
913
903
893
883
873
863
853
843
833
823
813
803
793
783
773
763
753
743
733
723
713
703
693
683
673
663
653
643
633
623
613
603
593
583
573
563
553
543
533
523
513
503
493
483
473
463
453
443
433
423
413
403
393
383
373
363
353
343
333
323
313
303
293
283
273
);


boundaryField
{
    axis
    {
        type            empty;
    }

    inlet
    {
        type            fixedValue;
        value           uniform 1773;
    }

   wall
    {
        type            zeroGradient;



    }
    outlet
    {
        type            zeroGradient;
    }
   front
    {
        type            wedge;
    }
   back
    {
        type            wedge;
    }

}

//**************************************************************************** //
