/*--------------------------------*- C++ -*----------------------------------*\
| =========                 |                                                 |
| \\      /  F ield         | OpenFOAM: The Open Source CFD Toolbox           |
|  \\    /   O peration     | Version:  5.x                                   |
|   \\  /    A nd           | Web:      www.OpenFOAM.org                      |
|    \\/     M anipulation  |                                                 |
\*---------------------------------------------------------------------------*/
FoamFile
{
    version     2.0;
    format      ascii;
    class       volVectorField;
    location    "0.06";
    object      Uair;
}
// * * * * * * * * * * * * * * * * * * * * * * * * * * * * * * * * * * * * * //

dimensions      [0 1 -1 0 0 0 0];

internalField   nonuniform List<vector> 

151
(
(2  0   0)
(8.71376    0   0)
(13.5532    0   0)
(13.6086    0   0)
(12.9371    0   0)
(12.5015    0   0)
(12.5261    0   0)
(12.5334    0   0)
(12.4603    0   0)
(12.3652    0   0)
(12.2892    0   0)
(12.2208    0   0)
(12.1479    0   0)
(12.0738    0   0)
(12.0004    0   0)
(11.9273    0   0)
(11.8541    0   0)
(11.7808    0   0)
(11.7075    0   0)
(11.6343    0   0)
(11.561 0   0)
(11.4877    0   0)
(11.4145    0   0)
(11.3412    0   0)
(11.2679    0   0)
(11.1947    0   0)
(11.1214    0   0)
(11.0481    0   0)
(10.9749    0   0)
(10.9016    0   0)
(10.8283    0   0)
(10.7551    0   0)
(10.6818    0   0)
(10.6086    0   0)
(10.5353    0   0)
(10.462 0   0)
(10.3888    0   0)
(10.3155    0   0)
(10.2422    0   0)
(10.169 0   0)
(10.0957    0   0)
(10.0225    0   0)
(9.94917    0   0)
(9.87592    0   0)
(9.80265    0   0)
(9.7294 0   0)
(9.65612    0   0)
(9.58287    0   0)
(9.50959    0   0)
(9.43634    0   0)
(9.36306    0   0)
(9.28981    0   0)
(9.21653    0   0)
(9.14329    0   0)
(9.07   0   0)
(8.99676    0   0)
(8.92347    0   0)
(8.85023    0   0)
(8.77695    0   0)
(8.7037 0   0)
(8.63041    0   0)
(8.55718    0   0)
(8.48389    0   0)
(8.41065    0   0)
(8.33736    0   0)
(8.26412    0   0)
(8.19083    0   0)
(8.1176 0   0)
(8.0443 0   0)
(7.97107    0   0)
(7.89777    0   0)
(7.82454    0   0)
(7.75124    0   0)
(7.67802    0   0)
(7.60471    0   0)
(7.53149    0   0)
(7.45818    0   0)
(7.38496    0   0)
(7.31166    0   0)
(7.23844    0   0)
(7.16513    0   0)
(7.09191    0   0)
(7.0186 0   0)
(6.94539    0   0)
(6.87207    0   0)
(6.79886    0   0)
(6.72554    0   0)
(6.65234    0   0)
(6.57901    0   0)
(6.50581    0   0)
(6.43248    0   0)
(6.35929    0   0)
(6.28595    0   0)
(6.21276    0   0)
(6.13942    0   0)
(6.06624    0   0)
(5.99289    0   0)
(5.91971    0   0)
(5.84636    0   0)
(5.77319    0   0)
(5.69983    0   0)
(5.62666    0   0)
(5.5533 0   0)
(5.48014    0   0)
(5.40677    0   0)
(5.33362    0   0)
(5.26024    0   0)
(5.18709    0   0)
(5.11371    0   0)
(5.04057    0   0)
(4.96718    0   0)
(4.89405    0   0)
(4.82065    0   0)
(4.74752    0   0)
(4.67412    0   0)
(4.601  0   0)
(4.52758    0   0)
(4.45448    0   0)
(4.38105    0   0)
(4.30796    0   0)
(4.23452    0   0)
(4.16144    0   0)
(4.08799    0   0)
(4.01491    0   0)
(3.94145    0   0)
(3.86839    0   0)
(3.79492    0   0)
(3.72187    0   0)
(3.64839    0   0)
(3.57535    0   0)
(3.50186    0   0)
(3.42883    0   0)
(3.35532    0   0)
(3.28231    0   0)
(3.20879    0   0)
(3.13579    0   0)
(3.06225    0   0)
(2.98928    0   0)
(2.91572    0   0)
(2.84276    0   0)
(2.76919    0   0)
(2.69624    0   0)
(2.62265    0   0)
(2.54972    0   0)
(2.47612    0   0)
(2.40321    0   0)
(2.32958    0   0)
(2.25681    0   0)
(2.18306    0   0)
(2.11233    0   0)
(2.03956    0   0)

)
;

boundaryField
{
    axis
    {
        type            empty;
    }
    inlet
    {
        type            zeroGradient;
    }
    wall
    {
        type            zeroGradient;
    }
    outlet
    {
        type            zeroGradient;
    }
    front
    {
        type            wedge;
    }
    back
    {
        type            wedge;
    }
}


// ************************************************************************* //
