/*--------------------------------*- C++ -*----------------------------------*\
| =========                 |                                                 |
| \\      /  F ield         | OpenFOAM: The Open Source CFD Toolbox           |
|  \\    /   O peration     | Version:  5.x                                   |
|   \\  /    A nd           | Web:      www.OpenFOAM.org                      |
|    \\/     M anipulation  |                                                 |
\*---------------------------------------------------------------------------*/
FoamFile
{
    version     2.0;
    format      ascii;
    class       volScalarField;
    location    "8";
    object      p;
}
// * * * * * * * * * * * * * * * * * * * * * * * * * * * * * * * * * * * * * //

dimensions      [0 2 -2 0 0 0 0];

internalField   nonuniform List<scalar> 
5000
(
0.0973413
0.0973533
0.097379
0.0974165
0.0974647
0.0975232
0.0975916
0.09767
0.0977584
0.0978568
0.0979657
0.0980852
0.0982157
0.0983577
0.0985114
0.0986773
0.0988556
0.0990465
0.09925
0.0994663
0.099695
0.0999359
0.100189
0.100453
0.100727
0.101012
0.101306
0.101609
0.10192
0.102239
0.102567
0.102902
0.103244
0.103595
0.103953
0.104318
0.10469
0.105068
0.10545
0.105836
0.106222
0.106608
0.10699
0.107364
0.107729
0.108079
0.10841
0.108723
0.109029
0.109311
0.0971873
0.0971969
0.0972143
0.0972386
0.097269
0.0973044
0.0973439
0.0973869
0.0974324
0.0974797
0.0975282
0.0975771
0.0976258
0.0976736
0.09772
0.0977642
0.0978056
0.0978437
0.0978777
0.0979069
0.0979307
0.0979485
0.0979596
0.0979636
0.09796
0.0979485
0.0979291
0.0979017
0.0978665
0.0978241
0.0977749
0.0977197
0.0976593
0.0975947
0.0975268
0.0974567
0.0973853
0.0973135
0.0972422
0.097172
0.0971033
0.0970365
0.0969714
0.0969079
0.0968454
0.0967834
0.0967211
0.0966554
0.0965783
0.0964921
0.0969733
0.0969797
0.0969964
0.0970211
0.0970526
0.0970899
0.0971325
0.0971797
0.0972309
0.0972855
0.0973431
0.0974028
0.0974643
0.0975268
0.0975898
0.0976527
0.0977151
0.0977764
0.0978364
0.0978946
0.0979508
0.0980048
0.0980564
0.0981055
0.0981519
0.0981954
0.0982359
0.0982732
0.0983072
0.0983377
0.0983645
0.0983875
0.0984066
0.0984217
0.0984326
0.0984394
0.0984421
0.0984406
0.0984349
0.0984253
0.0984117
0.0983944
0.0983735
0.098349
0.0983214
0.0982909
0.0982578
0.0982216
0.0981801
0.0981379
0.0965277
0.0965319
0.0965372
0.0965436
0.0965507
0.0965579
0.0965647
0.0965705
0.0965746
0.0965766
0.096576
0.0965725
0.0965658
0.0965555
0.0965416
0.096524
0.0965027
0.0964776
0.0964491
0.0964174
0.0963829
0.096346
0.0963071
0.096267
0.096226
0.0961849
0.0961441
0.096104
0.0960652
0.0960279
0.0959923
0.0959587
0.095927
0.0958974
0.0958696
0.0958438
0.0958196
0.095797
0.0957759
0.095756
0.0957373
0.0957196
0.0957028
0.0956869
0.0956717
0.0956572
0.0956436
0.0956305
0.0956169
0.0956032
0.0960732
0.0960738
0.0960767
0.0960812
0.0960867
0.0960929
0.0960994
0.0961058
0.096112
0.0961175
0.0961222
0.0961259
0.0961283
0.0961294
0.0961292
0.0961277
0.0961249
0.0961211
0.0961164
0.0961109
0.096105
0.0960987
0.0960923
0.0960858
0.0960795
0.0960732
0.096067
0.0960609
0.0960548
0.0960487
0.0960424
0.0960359
0.0960291
0.096022
0.0960145
0.0960067
0.0959984
0.0959897
0.0959806
0.0959711
0.0959614
0.0959514
0.0959411
0.0959307
0.0959202
0.0959097
0.0958992
0.0958886
0.0958774
0.0958665
0.0955072
0.0955064
0.0955031
0.0954977
0.0954902
0.0954807
0.0954689
0.0954547
0.0954381
0.095419
0.0953973
0.0953732
0.0953468
0.0953184
0.0952881
0.0952564
0.0952236
0.0951902
0.0951566
0.0951232
0.0950904
0.0950586
0.0950281
0.0949991
0.0949719
0.0949465
0.0949229
0.0949011
0.0948812
0.0948629
0.0948462
0.094831
0.094817
0.0948042
0.0947925
0.0947816
0.0947716
0.0947623
0.0947536
0.0947455
0.0947378
0.0947306
0.0947238
0.0947174
0.0947113
0.0947055
0.0947
0.0946947
0.0946893
0.0946839
0.0949518
0.0949493
0.094945
0.0949391
0.0949315
0.0949223
0.0949115
0.0948993
0.0948857
0.0948709
0.094855
0.0948381
0.0948205
0.0948024
0.0947841
0.0947659
0.094748
0.0947307
0.0947141
0.0946985
0.0946839
0.0946705
0.0946582
0.094647
0.0946369
0.0946277
0.0946193
0.0946117
0.0946047
0.0945981
0.094592
0.0945862
0.0945806
0.0945751
0.0945698
0.0945646
0.0945594
0.0945543
0.0945493
0.0945442
0.0945392
0.0945343
0.0945294
0.0945245
0.0945197
0.094515
0.0945104
0.0945058
0.094501
0.0944964
0.0943607
0.094358
0.0943516
0.0943422
0.09433
0.0943155
0.0942986
0.0942797
0.0942588
0.0942364
0.0942125
0.0941876
0.0941619
0.0941357
0.0941095
0.0940835
0.0940582
0.0940336
0.0940102
0.0939881
0.0939674
0.0939482
0.0939305
0.0939143
0.0938996
0.0938862
0.0938741
0.0938632
0.0938534
0.0938445
0.0938364
0.093829
0.0938223
0.0938161
0.0938104
0.0938052
0.0938003
0.0937957
0.0937914
0.0937873
0.0937835
0.0937798
0.0937764
0.0937731
0.09377
0.093767
0.0937642
0.0937615
0.0937587
0.0937559
0.0937959
0.0937928
0.0937868
0.0937784
0.0937679
0.0937554
0.0937413
0.0937259
0.0937094
0.093692
0.0936742
0.0936561
0.093638
0.0936202
0.093603
0.0935866
0.0935711
0.0935567
0.0935434
0.0935313
0.0935203
0.0935105
0.0935017
0.0934938
0.0934868
0.0934805
0.0934748
0.0934697
0.0934651
0.0934608
0.0934568
0.093453
0.0934495
0.0934461
0.0934428
0.0934397
0.0934366
0.0934336
0.0934307
0.0934279
0.0934251
0.0934223
0.0934197
0.093417
0.0934145
0.093412
0.0934096
0.0934072
0.0934047
0.0934023
0.0932295
0.0932267
0.0932206
0.0932118
0.0932006
0.0931875
0.0931727
0.0931565
0.0931393
0.0931212
0.0931026
0.0930839
0.0930652
0.0930468
0.0930291
0.0930121
0.092996
0.092981
0.0929671
0.0929543
0.0929427
0.0929321
0.0929225
0.092914
0.0929062
0.0928993
0.0928931
0.0928875
0.0928824
0.0928778
0.0928736
0.0928698
0.0928662
0.0928629
0.0928599
0.092857
0.0928543
0.0928517
0.0928493
0.092847
0.0928448
0.0928428
0.0928408
0.0928388
0.092837
0.0928353
0.0928336
0.092832
0.0928303
0.0928287
0.0926903
0.0926876
0.0926824
0.0926751
0.092666
0.0926553
0.0926435
0.0926308
0.0926175
0.0926038
0.09259
0.0925764
0.0925632
0.0925505
0.0925385
0.0925273
0.092517
0.0925076
0.0924991
0.0924914
0.0924846
0.0924785
0.0924731
0.0924683
0.092464
0.0924602
0.0924567
0.0924536
0.0924507
0.092448
0.0924455
0.0924432
0.0924409
0.0924388
0.0924368
0.0924348
0.0924329
0.092431
0.0924292
0.0924275
0.0924258
0.0924241
0.0924225
0.0924209
0.0924193
0.0924178
0.0924164
0.092415
0.0924135
0.0924121
0.0921594
0.0921572
0.0921524
0.0921456
0.0921372
0.0921274
0.0921165
0.0921048
0.0920926
0.09208
0.0920675
0.0920551
0.0920431
0.0920315
0.0920206
0.0920104
0.092001
0.0919923
0.0919844
0.0919773
0.0919709
0.0919652
0.09196
0.0919554
0.0919512
0.0919475
0.0919442
0.0919411
0.0919383
0.0919358
0.0919334
0.0919312
0.0919292
0.0919273
0.0919254
0.0919237
0.0919221
0.0919205
0.091919
0.0919176
0.0919162
0.0919149
0.0919136
0.0919123
0.0919111
0.09191
0.0919089
0.0919079
0.0919067
0.0919057
0.091649
0.091647
0.0916431
0.0916376
0.0916308
0.091623
0.0916144
0.0916053
0.0915959
0.0915865
0.0915771
0.091568
0.0915594
0.0915512
0.0915436
0.0915366
0.0915303
0.0915246
0.0915194
0.0915149
0.0915108
0.0915072
0.0915039
0.0915011
0.0914985
0.0914961
0.091494
0.091492
0.0914902
0.0914885
0.0914869
0.0914854
0.0914839
0.0914825
0.0914812
0.0914799
0.0914786
0.0914774
0.0914762
0.091475
0.0914739
0.0914728
0.0914717
0.0914707
0.0914696
0.0914687
0.0914677
0.0914668
0.0914658
0.0914648
0.0911465
0.0911448
0.0911414
0.0911366
0.0911306
0.0911238
0.0911163
0.0911084
0.0911002
0.091092
0.091084
0.0910761
0.0910687
0.0910616
0.0910551
0.0910491
0.0910436
0.0910386
0.0910342
0.0910301
0.0910265
0.0910233
0.0910204
0.0910178
0.0910155
0.0910133
0.0910114
0.0910096
0.091008
0.0910064
0.091005
0.0910036
0.0910023
0.0910011
0.0909999
0.0909988
0.0909977
0.0909967
0.0909956
0.0909947
0.0909937
0.0909928
0.0909919
0.090991
0.0909902
0.0909894
0.0909886
0.0909879
0.0909871
0.0909863
0.0906567
0.0906552
0.0906524
0.0906485
0.0906437
0.0906382
0.0906323
0.0906261
0.0906198
0.0906135
0.0906074
0.0906015
0.090596
0.0905908
0.0905861
0.0905818
0.090578
0.0905745
0.0905714
0.0905686
0.0905661
0.0905639
0.090562
0.0905602
0.0905586
0.0905571
0.0905557
0.0905544
0.0905532
0.0905521
0.090551
0.09055
0.090549
0.090548
0.0905471
0.0905462
0.0905453
0.0905444
0.0905436
0.0905427
0.0905419
0.0905411
0.0905404
0.0905396
0.0905389
0.0905382
0.0905375
0.0905369
0.0905362
0.0905355
0.0901716
0.0901704
0.090168
0.0901646
0.0901605
0.0901558
0.0901507
0.0901454
0.0901401
0.0901347
0.0901295
0.0901246
0.0901199
0.0901156
0.0901116
0.090108
0.0901047
0.0901018
0.0900991
0.0900968
0.0900946
0.0900927
0.090091
0.0900894
0.090088
0.0900867
0.0900855
0.0900844
0.0900833
0.0900823
0.0900814
0.0900804
0.0900796
0.0900787
0.0900779
0.0900771
0.0900763
0.0900756
0.0900748
0.0900741
0.0900734
0.0900728
0.0900721
0.0900715
0.0900709
0.0900703
0.0900697
0.0900691
0.0900686
0.090068
0.0896933
0.0896922
0.0896902
0.0896874
0.0896841
0.0896802
0.0896762
0.0896719
0.0896676
0.0896635
0.0896594
0.0896556
0.089652
0.0896488
0.0896458
0.0896431
0.0896406
0.0896385
0.0896365
0.0896348
0.0896332
0.0896318
0.0896306
0.0896294
0.0896283
0.0896273
0.0896264
0.0896255
0.0896247
0.0896239
0.0896231
0.0896224
0.0896217
0.089621
0.0896203
0.0896196
0.089619
0.0896183
0.0896177
0.0896171
0.0896165
0.0896159
0.0896153
0.0896148
0.0896142
0.0896137
0.0896132
0.0896127
0.0896122
0.0896117
0.0892167
0.0892158
0.0892141
0.0892117
0.0892088
0.0892055
0.089202
0.0891984
0.0891948
0.0891912
0.0891878
0.0891846
0.0891816
0.0891789
0.0891764
0.0891741
0.0891721
0.0891702
0.0891686
0.0891671
0.0891658
0.0891646
0.0891635
0.0891625
0.0891615
0.0891607
0.0891599
0.0891591
0.0891584
0.0891577
0.089157
0.0891563
0.0891557
0.0891551
0.0891545
0.0891539
0.0891533
0.0891527
0.0891522
0.0891517
0.0891511
0.0891506
0.0891501
0.0891496
0.0891492
0.0891487
0.0891483
0.0891478
0.0891474
0.0891469
0.0887425
0.0887418
0.0887403
0.0887383
0.0887359
0.0887332
0.0887303
0.0887274
0.0887245
0.0887216
0.0887189
0.0887163
0.088714
0.0887118
0.0887098
0.0887081
0.0887065
0.0887051
0.0887038
0.0887027
0.0887016
0.0887007
0.0886998
0.0886991
0.0886983
0.0886976
0.088697
0.0886963
0.0886957
0.0886952
0.0886946
0.088694
0.0886935
0.088693
0.0886924
0.0886919
0.0886914
0.0886909
0.0886904
0.08869
0.0886895
0.0886891
0.0886886
0.0886882
0.0886878
0.0886874
0.088687
0.0886866
0.0886862
0.0886858
0.0882679
0.0882673
0.088266
0.0882643
0.0882622
0.0882599
0.0882575
0.088255
0.0882525
0.08825
0.0882477
0.0882456
0.0882436
0.0882418
0.0882401
0.0882386
0.0882373
0.0882361
0.088235
0.088234
0.0882332
0.0882324
0.0882316
0.0882309
0.0882303
0.0882297
0.0882291
0.0882286
0.088228
0.0882275
0.088227
0.0882265
0.088226
0.0882256
0.0882251
0.0882247
0.0882242
0.0882238
0.0882233
0.0882229
0.0882225
0.0882221
0.0882217
0.0882214
0.088221
0.0882206
0.0882203
0.0882199
0.0882196
0.0882192
0.087793
0.0877925
0.0877914
0.0877899
0.0877882
0.0877862
0.0877842
0.0877821
0.08778
0.087778
0.0877761
0.0877744
0.0877728
0.0877713
0.08777
0.0877688
0.0877677
0.0877667
0.0877659
0.0877651
0.0877644
0.0877637
0.0877631
0.0877626
0.087762
0.0877615
0.087761
0.0877606
0.0877601
0.0877597
0.0877592
0.0877588
0.0877584
0.087758
0.0877576
0.0877572
0.0877568
0.0877564
0.087756
0.0877557
0.0877553
0.0877549
0.0877546
0.0877543
0.0877539
0.0877536
0.0877533
0.087753
0.0877527
0.0877524
0.087316
0.0873155
0.0873146
0.0873133
0.0873118
0.0873101
0.0873083
0.0873065
0.0873048
0.0873031
0.0873015
0.0873
0.0872986
0.0872974
0.0872962
0.0872952
0.0872943
0.0872935
0.0872928
0.0872921
0.0872915
0.0872909
0.0872904
0.0872899
0.0872894
0.087289
0.0872886
0.0872882
0.0872878
0.0872874
0.087287
0.0872866
0.0872862
0.0872859
0.0872855
0.0872852
0.0872848
0.0872845
0.0872841
0.0872838
0.0872835
0.0872832
0.0872828
0.0872825
0.0872822
0.087282
0.0872817
0.0872814
0.0872811
0.0872808
0.0868366
0.0868362
0.0868354
0.0868343
0.086833
0.0868316
0.0868301
0.0868286
0.0868271
0.0868257
0.0868244
0.0868231
0.086822
0.086821
0.08682
0.0868192
0.0868185
0.0868178
0.0868172
0.0868166
0.0868161
0.0868156
0.0868152
0.0868148
0.0868144
0.086814
0.0868137
0.0868133
0.0868129
0.0868126
0.0868123
0.0868119
0.0868116
0.0868113
0.086811
0.0868106
0.0868103
0.08681
0.0868097
0.0868094
0.0868091
0.0868088
0.0868086
0.0868083
0.086808
0.0868078
0.0868075
0.0868073
0.086807
0.0868068
0.0863538
0.0863535
0.0863528
0.0863518
0.0863507
0.0863495
0.0863482
0.0863469
0.0863456
0.0863444
0.0863433
0.0863422
0.0863412
0.0863404
0.0863396
0.0863389
0.0863382
0.0863377
0.0863371
0.0863367
0.0863362
0.0863358
0.0863354
0.0863351
0.0863347
0.0863344
0.0863341
0.0863338
0.0863334
0.0863331
0.0863328
0.0863325
0.0863323
0.086332
0.0863317
0.0863314
0.0863311
0.0863308
0.0863306
0.0863303
0.08633
0.0863298
0.0863295
0.0863293
0.0863291
0.0863288
0.0863286
0.0863284
0.0863282
0.0863279
0.0858673
0.085867
0.0858664
0.0858656
0.0858646
0.0858636
0.0858625
0.0858614
0.0858603
0.0858593
0.0858583
0.0858574
0.0858566
0.0858559
0.0858552
0.0858546
0.0858541
0.0858536
0.0858531
0.0858527
0.0858524
0.085852
0.0858517
0.0858514
0.0858511
0.0858508
0.0858505
0.0858502
0.08585
0.0858497
0.0858494
0.0858492
0.0858489
0.0858486
0.0858484
0.0858481
0.0858479
0.0858476
0.0858474
0.0858472
0.0858469
0.0858467
0.0858465
0.0858462
0.085846
0.0858458
0.0858456
0.0858454
0.0858452
0.085845
0.0853762
0.085376
0.0853754
0.0853747
0.0853739
0.085373
0.085372
0.0853711
0.0853701
0.0853693
0.0853684
0.0853677
0.085367
0.0853663
0.0853658
0.0853653
0.0853648
0.0853644
0.085364
0.0853637
0.0853633
0.085363
0.0853628
0.0853625
0.0853622
0.085362
0.0853617
0.0853615
0.0853612
0.085361
0.0853607
0.0853605
0.0853603
0.08536
0.0853598
0.0853596
0.0853594
0.0853591
0.0853589
0.0853587
0.0853585
0.0853583
0.0853581
0.0853579
0.0853577
0.0853575
0.0853573
0.0853572
0.085357
0.0853568
0.0848802
0.08488
0.0848795
0.0848789
0.0848782
0.0848774
0.0848766
0.0848758
0.084875
0.0848742
0.0848735
0.0848729
0.0848723
0.0848717
0.0848713
0.0848708
0.0848704
0.0848701
0.0848698
0.0848695
0.0848692
0.0848689
0.0848687
0.0848684
0.0848682
0.084868
0.0848678
0.0848676
0.0848673
0.0848671
0.0848669
0.0848667
0.0848665
0.0848663
0.0848661
0.0848659
0.0848657
0.0848655
0.0848653
0.0848651
0.0848649
0.0848647
0.0848645
0.0848643
0.0848642
0.084864
0.0848638
0.0848637
0.0848635
0.0848633
0.0843787
0.0843785
0.0843781
0.0843775
0.0843769
0.0843762
0.0843755
0.0843748
0.0843741
0.0843734
0.0843728
0.0843723
0.0843718
0.0843713
0.0843709
0.0843705
0.0843702
0.0843699
0.0843696
0.0843693
0.0843691
0.0843689
0.0843687
0.0843685
0.0843683
0.0843681
0.0843679
0.0843677
0.0843675
0.0843673
0.0843671
0.0843669
0.0843667
0.0843665
0.0843663
0.0843662
0.084366
0.0843658
0.0843656
0.0843654
0.0843653
0.0843651
0.0843649
0.0843648
0.0843646
0.0843645
0.0843643
0.0843642
0.084364
0.0843639
0.0838711
0.083871
0.0838706
0.0838702
0.0838696
0.083869
0.0838684
0.0838678
0.0838672
0.0838666
0.0838661
0.0838656
0.0838652
0.0838648
0.0838644
0.0838641
0.0838638
0.0838636
0.0838633
0.0838631
0.0838629
0.0838627
0.0838625
0.0838623
0.0838621
0.083862
0.0838618
0.0838616
0.0838614
0.0838613
0.0838611
0.0838609
0.0838608
0.0838606
0.0838604
0.0838603
0.0838601
0.0838599
0.0838598
0.0838596
0.0838595
0.0838593
0.0838592
0.083859
0.0838589
0.0838587
0.0838586
0.0838585
0.0838583
0.0838582
0.0833571
0.0833569
0.0833566
0.0833562
0.0833558
0.0833552
0.0833547
0.0833542
0.0833537
0.0833532
0.0833527
0.0833523
0.0833519
0.0833516
0.0833513
0.083351
0.0833508
0.0833505
0.0833503
0.0833501
0.0833499
0.0833498
0.0833496
0.0833494
0.0833493
0.0833491
0.083349
0.0833488
0.0833487
0.0833485
0.0833484
0.0833482
0.083348
0.0833479
0.0833477
0.0833476
0.0833475
0.0833473
0.0833472
0.083347
0.0833469
0.0833467
0.0833466
0.0833465
0.0833464
0.0833462
0.0833461
0.083346
0.0833459
0.0833457
0.0828362
0.082836
0.0828357
0.0828354
0.082835
0.0828345
0.0828341
0.0828336
0.0828331
0.0828327
0.0828323
0.082832
0.0828317
0.0828314
0.0828311
0.0828309
0.0828306
0.0828304
0.0828303
0.0828301
0.0828299
0.0828298
0.0828296
0.0828295
0.0828294
0.0828292
0.0828291
0.0828289
0.0828288
0.0828287
0.0828285
0.0828284
0.0828283
0.0828281
0.082828
0.0828279
0.0828277
0.0828276
0.0828275
0.0828273
0.0828272
0.0828271
0.082827
0.0828268
0.0828267
0.0828266
0.0828265
0.0828264
0.0828263
0.0828262
0.0823078
0.0823077
0.0823074
0.0823071
0.0823068
0.0823064
0.082306
0.0823055
0.0823052
0.0823048
0.0823045
0.0823041
0.0823039
0.0823036
0.0823034
0.0823032
0.082303
0.0823028
0.0823027
0.0823025
0.0823024
0.0823022
0.0823021
0.082302
0.0823019
0.0823017
0.0823016
0.0823015
0.0823014
0.0823012
0.0823011
0.082301
0.0823009
0.0823008
0.0823006
0.0823005
0.0823004
0.0823003
0.0823002
0.0823
0.0822999
0.0822998
0.0822997
0.0822996
0.0822995
0.0822994
0.0822993
0.0822992
0.0822991
0.082299
0.0817716
0.0817715
0.0817713
0.081771
0.0817707
0.0817703
0.08177
0.0817696
0.0817693
0.081769
0.0817687
0.0817684
0.0817682
0.081768
0.0817678
0.0817676
0.0817674
0.0817673
0.0817671
0.081767
0.0817669
0.0817668
0.0817666
0.0817665
0.0817664
0.0817663
0.0817662
0.0817661
0.081766
0.0817659
0.0817658
0.0817657
0.0817655
0.0817654
0.0817653
0.0817652
0.0817651
0.081765
0.0817649
0.0817648
0.0817647
0.0817646
0.0817645
0.0817644
0.0817643
0.0817642
0.0817641
0.081764
0.081764
0.0817639
0.0812271
0.081227
0.0812268
0.0812266
0.0812263
0.081226
0.0812257
0.0812254
0.0812251
0.0812248
0.0812245
0.0812243
0.0812241
0.0812239
0.0812237
0.0812236
0.0812234
0.0812233
0.0812232
0.0812231
0.081223
0.0812229
0.0812228
0.0812227
0.0812226
0.0812225
0.0812224
0.0812223
0.0812222
0.0812221
0.081222
0.0812219
0.0812218
0.0812217
0.0812216
0.0812215
0.0812214
0.0812213
0.0812212
0.0812211
0.081221
0.0812209
0.0812208
0.0812208
0.0812207
0.0812206
0.0812205
0.0812204
0.0812204
0.0812203
0.0806738
0.0806738
0.0806736
0.0806734
0.0806732
0.0806729
0.0806726
0.0806724
0.0806721
0.0806719
0.0806716
0.0806714
0.0806712
0.0806711
0.0806709
0.0806708
0.0806707
0.0806706
0.0806705
0.0806704
0.0806703
0.0806702
0.0806701
0.08067
0.0806699
0.0806698
0.0806697
0.0806696
0.0806696
0.0806695
0.0806694
0.0806693
0.0806692
0.0806691
0.080669
0.0806689
0.0806689
0.0806688
0.0806687
0.0806686
0.0806685
0.0806684
0.0806684
0.0806683
0.0806682
0.0806681
0.0806681
0.080668
0.0806679
0.0806678
0.0801114
0.0801113
0.0801112
0.080111
0.0801108
0.0801106
0.0801104
0.0801101
0.0801099
0.0801097
0.0801095
0.0801093
0.0801092
0.080109
0.0801089
0.0801088
0.0801086
0.0801085
0.0801085
0.0801084
0.0801083
0.0801082
0.0801081
0.080108
0.080108
0.0801079
0.0801078
0.0801077
0.0801077
0.0801076
0.0801075
0.0801074
0.0801073
0.0801073
0.0801072
0.0801071
0.080107
0.080107
0.0801069
0.0801068
0.0801067
0.0801067
0.0801066
0.0801065
0.0801065
0.0801064
0.0801063
0.0801063
0.0801062
0.0801061
0.0795394
0.0795393
0.0795392
0.079539
0.0795389
0.0795386
0.0795384
0.0795382
0.079538
0.0795379
0.0795377
0.0795375
0.0795374
0.0795373
0.0795372
0.0795371
0.079537
0.0795369
0.0795368
0.0795367
0.0795366
0.0795366
0.0795365
0.0795364
0.0795364
0.0795363
0.0795362
0.0795362
0.0795361
0.079536
0.0795359
0.0795359
0.0795358
0.0795357
0.0795357
0.0795356
0.0795355
0.0795355
0.0795354
0.0795353
0.0795353
0.0795352
0.0795351
0.0795351
0.079535
0.0795349
0.0795349
0.0795348
0.0795348
0.0795347
0.0789573
0.0789572
0.0789571
0.078957
0.0789568
0.0789566
0.0789564
0.0789563
0.0789561
0.0789559
0.0789558
0.0789556
0.0789555
0.0789554
0.0789553
0.0789552
0.0789551
0.0789551
0.078955
0.0789549
0.0789549
0.0789548
0.0789547
0.0789547
0.0789546
0.0789546
0.0789545
0.0789544
0.0789544
0.0789543
0.0789542
0.0789542
0.0789541
0.0789541
0.078954
0.0789539
0.0789539
0.0789538
0.0789537
0.0789537
0.0789536
0.0789536
0.0789535
0.0789535
0.0789534
0.0789533
0.0789533
0.0789532
0.0789532
0.0789531
0.0783646
0.0783646
0.0783645
0.0783644
0.0783642
0.0783641
0.0783639
0.0783637
0.0783636
0.0783635
0.0783633
0.0783632
0.0783631
0.078363
0.0783629
0.0783628
0.0783628
0.0783627
0.0783626
0.0783626
0.0783625
0.0783625
0.0783624
0.0783624
0.0783623
0.0783623
0.0783622
0.0783621
0.0783621
0.078362
0.078362
0.0783619
0.0783619
0.0783618
0.0783618
0.0783617
0.0783616
0.0783616
0.0783615
0.0783615
0.0783614
0.0783614
0.0783613
0.0783613
0.0783612
0.0783612
0.0783611
0.0783611
0.078361
0.078361
0.077761
0.077761
0.0777609
0.0777608
0.0777607
0.0777605
0.0777604
0.0777602
0.0777601
0.07776
0.0777599
0.0777598
0.0777597
0.0777596
0.0777595
0.0777595
0.0777594
0.0777593
0.0777593
0.0777592
0.0777592
0.0777591
0.0777591
0.077759
0.077759
0.0777589
0.0777589
0.0777588
0.0777588
0.0777587
0.0777587
0.0777586
0.0777586
0.0777585
0.0777585
0.0777584
0.0777584
0.0777583
0.0777583
0.0777582
0.0777582
0.0777582
0.0777581
0.0777581
0.077758
0.077758
0.0777579
0.0777579
0.0777579
0.0777578
0.077146
0.0771459
0.0771459
0.0771458
0.0771457
0.0771456
0.0771454
0.0771453
0.0771452
0.0771451
0.077145
0.0771449
0.0771448
0.0771448
0.0771447
0.0771446
0.0771446
0.0771445
0.0771445
0.0771444
0.0771444
0.0771443
0.0771443
0.0771443
0.0771442
0.0771442
0.0771441
0.0771441
0.077144
0.077144
0.077144
0.0771439
0.0771439
0.0771438
0.0771438
0.0771437
0.0771437
0.0771436
0.0771436
0.0771436
0.0771435
0.0771435
0.0771434
0.0771434
0.0771434
0.0771433
0.0771433
0.0771432
0.0771432
0.0771432
0.0765191
0.076519
0.076519
0.0765189
0.0765188
0.0765187
0.0765186
0.0765185
0.0765184
0.0765183
0.0765182
0.0765181
0.0765181
0.076518
0.0765179
0.0765179
0.0765178
0.0765178
0.0765178
0.0765177
0.0765177
0.0765176
0.0765176
0.0765176
0.0765175
0.0765175
0.0765175
0.0765174
0.0765174
0.0765173
0.0765173
0.0765173
0.0765172
0.0765172
0.0765171
0.0765171
0.0765171
0.076517
0.076517
0.0765169
0.0765169
0.0765169
0.0765168
0.0765168
0.0765168
0.0765167
0.0765167
0.0765167
0.0765166
0.0765166
0.0758798
0.0758798
0.0758798
0.0758797
0.0758796
0.0758795
0.0758794
0.0758793
0.0758792
0.0758792
0.0758791
0.075879
0.0758789
0.0758789
0.0758788
0.0758788
0.0758788
0.0758787
0.0758787
0.0758786
0.0758786
0.0758786
0.0758785
0.0758785
0.0758785
0.0758784
0.0758784
0.0758784
0.0758783
0.0758783
0.0758783
0.0758782
0.0758782
0.0758782
0.0758781
0.0758781
0.0758781
0.075878
0.075878
0.075878
0.0758779
0.0758779
0.0758779
0.0758778
0.0758778
0.0758778
0.0758777
0.0758777
0.0758777
0.0758777
0.0752278
0.0752278
0.0752277
0.0752277
0.0752276
0.0752275
0.0752274
0.0752273
0.0752273
0.0752272
0.0752271
0.0752271
0.075227
0.075227
0.0752269
0.0752269
0.0752269
0.0752268
0.0752268
0.0752268
0.0752267
0.0752267
0.0752267
0.0752266
0.0752266
0.0752266
0.0752265
0.0752265
0.0752265
0.0752265
0.0752264
0.0752264
0.0752264
0.0752263
0.0752263
0.0752263
0.0752262
0.0752262
0.0752262
0.0752262
0.0752261
0.0752261
0.0752261
0.075226
0.075226
0.075226
0.075226
0.0752259
0.0752259
0.0752259
0.0745625
0.0745625
0.0745624
0.0745624
0.0745623
0.0745622
0.0745622
0.0745621
0.074562
0.074562
0.0745619
0.0745619
0.0745618
0.0745618
0.0745617
0.0745617
0.0745617
0.0745616
0.0745616
0.0745616
0.0745616
0.0745615
0.0745615
0.0745615
0.0745615
0.0745614
0.0745614
0.0745614
0.0745613
0.0745613
0.0745613
0.0745613
0.0745612
0.0745612
0.0745612
0.0745612
0.0745611
0.0745611
0.0745611
0.0745611
0.074561
0.074561
0.074561
0.074561
0.0745609
0.0745609
0.0745609
0.0745609
0.0745608
0.0745608
0.0738834
0.0738834
0.0738834
0.0738833
0.0738833
0.0738832
0.0738832
0.0738831
0.073883
0.073883
0.0738829
0.0738829
0.0738829
0.0738828
0.0738828
0.0738828
0.0738827
0.0738827
0.0738827
0.0738827
0.0738826
0.0738826
0.0738826
0.0738826
0.0738825
0.0738825
0.0738825
0.0738825
0.0738825
0.0738824
0.0738824
0.0738824
0.0738824
0.0738823
0.0738823
0.0738823
0.0738823
0.0738822
0.0738822
0.0738822
0.0738822
0.0738821
0.0738821
0.0738821
0.0738821
0.0738821
0.073882
0.073882
0.073882
0.073882
0.0731902
0.0731902
0.0731901
0.0731901
0.0731901
0.07319
0.07319
0.0731899
0.0731899
0.0731898
0.0731898
0.0731897
0.0731897
0.0731897
0.0731896
0.0731896
0.0731896
0.0731896
0.0731895
0.0731895
0.0731895
0.0731895
0.0731895
0.0731894
0.0731894
0.0731894
0.0731894
0.0731894
0.0731893
0.0731893
0.0731893
0.0731893
0.0731893
0.0731892
0.0731892
0.0731892
0.0731892
0.0731891
0.0731891
0.0731891
0.0731891
0.0731891
0.073189
0.073189
0.073189
0.073189
0.073189
0.073189
0.0731889
0.0731889
0.0724823
0.0724823
0.0724822
0.0724822
0.0724821
0.0724821
0.0724821
0.072482
0.072482
0.0724819
0.0724819
0.0724819
0.0724818
0.0724818
0.0724818
0.0724817
0.0724817
0.0724817
0.0724817
0.0724817
0.0724817
0.0724816
0.0724816
0.0724816
0.0724816
0.0724816
0.0724816
0.0724815
0.0724815
0.0724815
0.0724815
0.0724815
0.0724814
0.0724814
0.0724814
0.0724814
0.0724814
0.0724814
0.0724813
0.0724813
0.0724813
0.0724813
0.0724813
0.0724812
0.0724812
0.0724812
0.0724812
0.0724812
0.0724812
0.0724812
0.0717592
0.0717592
0.0717591
0.0717591
0.0717591
0.071759
0.071759
0.0717589
0.0717589
0.0717589
0.0717588
0.0717588
0.0717588
0.0717588
0.0717587
0.0717587
0.0717587
0.0717587
0.0717587
0.0717587
0.0717586
0.0717586
0.0717586
0.0717586
0.0717586
0.0717586
0.0717586
0.0717585
0.0717585
0.0717585
0.0717585
0.0717585
0.0717585
0.0717584
0.0717584
0.0717584
0.0717584
0.0717584
0.0717584
0.0717583
0.0717583
0.0717583
0.0717583
0.0717583
0.0717583
0.0717583
0.0717582
0.0717582
0.0717582
0.0717582
0.0710204
0.0710204
0.0710204
0.0710204
0.0710203
0.0710203
0.0710203
0.0710202
0.0710202
0.0710202
0.0710201
0.0710201
0.0710201
0.0710201
0.0710201
0.07102
0.07102
0.07102
0.07102
0.07102
0.07102
0.07102
0.0710199
0.0710199
0.0710199
0.0710199
0.0710199
0.0710199
0.0710199
0.0710199
0.0710198
0.0710198
0.0710198
0.0710198
0.0710198
0.0710198
0.0710198
0.0710197
0.0710197
0.0710197
0.0710197
0.0710197
0.0710197
0.0710197
0.0710197
0.0710196
0.0710196
0.0710196
0.0710196
0.0710196
0.0702655
0.0702655
0.0702655
0.0702655
0.0702655
0.0702654
0.0702654
0.0702654
0.0702654
0.0702653
0.0702653
0.0702653
0.0702653
0.0702652
0.0702652
0.0702652
0.0702652
0.0702652
0.0702652
0.0702652
0.0702652
0.0702651
0.0702651
0.0702651
0.0702651
0.0702651
0.0702651
0.0702651
0.0702651
0.070265
0.070265
0.070265
0.070265
0.070265
0.070265
0.070265
0.070265
0.070265
0.0702649
0.0702649
0.0702649
0.0702649
0.0702649
0.0702649
0.0702649
0.0702649
0.0702649
0.0702648
0.0702648
0.0702648
0.069494
0.069494
0.069494
0.069494
0.069494
0.0694939
0.0694939
0.0694939
0.0694939
0.0694938
0.0694938
0.0694938
0.0694938
0.0694938
0.0694938
0.0694937
0.0694937
0.0694937
0.0694937
0.0694937
0.0694937
0.0694937
0.0694937
0.0694937
0.0694937
0.0694936
0.0694936
0.0694936
0.0694936
0.0694936
0.0694936
0.0694936
0.0694936
0.0694936
0.0694936
0.0694935
0.0694935
0.0694935
0.0694935
0.0694935
0.0694935
0.0694935
0.0694935
0.0694935
0.0694935
0.0694934
0.0694934
0.0694934
0.0694934
0.0694934
0.0687054
0.0687054
0.0687054
0.0687054
0.0687053
0.0687053
0.0687053
0.0687053
0.0687052
0.0687052
0.0687052
0.0687052
0.0687052
0.0687052
0.0687052
0.0687051
0.0687051
0.0687051
0.0687051
0.0687051
0.0687051
0.0687051
0.0687051
0.0687051
0.0687051
0.0687051
0.0687051
0.068705
0.068705
0.068705
0.068705
0.068705
0.068705
0.068705
0.068705
0.068705
0.068705
0.068705
0.0687049
0.0687049
0.0687049
0.0687049
0.0687049
0.0687049
0.0687049
0.0687049
0.0687049
0.0687049
0.0687049
0.0687049
0.0678991
0.0678991
0.0678991
0.0678991
0.0678991
0.0678991
0.067899
0.067899
0.067899
0.067899
0.067899
0.067899
0.0678989
0.0678989
0.0678989
0.0678989
0.0678989
0.0678989
0.0678989
0.0678989
0.0678989
0.0678989
0.0678989
0.0678988
0.0678988
0.0678988
0.0678988
0.0678988
0.0678988
0.0678988
0.0678988
0.0678988
0.0678988
0.0678988
0.0678988
0.0678988
0.0678988
0.0678987
0.0678987
0.0678987
0.0678987
0.0678987
0.0678987
0.0678987
0.0678987
0.0678987
0.0678987
0.0678987
0.0678987
0.0678987
0.0670747
0.0670747
0.0670747
0.0670747
0.0670747
0.0670747
0.0670746
0.0670746
0.0670746
0.0670746
0.0670746
0.0670746
0.0670746
0.0670745
0.0670745
0.0670745
0.0670745
0.0670745
0.0670745
0.0670745
0.0670745
0.0670745
0.0670745
0.0670745
0.0670745
0.0670745
0.0670745
0.0670745
0.0670744
0.0670744
0.0670744
0.0670744
0.0670744
0.0670744
0.0670744
0.0670744
0.0670744
0.0670744
0.0670744
0.0670744
0.0670744
0.0670744
0.0670744
0.0670744
0.0670743
0.0670743
0.0670743
0.0670743
0.0670743
0.0670743
0.0662316
0.0662316
0.0662316
0.0662316
0.0662316
0.0662316
0.0662316
0.0662316
0.0662316
0.0662315
0.0662315
0.0662315
0.0662315
0.0662315
0.0662315
0.0662315
0.0662315
0.0662315
0.0662315
0.0662315
0.0662315
0.0662315
0.0662315
0.0662315
0.0662314
0.0662314
0.0662314
0.0662314
0.0662314
0.0662314
0.0662314
0.0662314
0.0662314
0.0662314
0.0662314
0.0662314
0.0662314
0.0662314
0.0662314
0.0662314
0.0662314
0.0662314
0.0662313
0.0662313
0.0662313
0.0662313
0.0662313
0.0662313
0.0662313
0.0662313
0.0653694
0.0653694
0.0653694
0.0653694
0.0653694
0.0653694
0.0653694
0.0653694
0.0653693
0.0653693
0.0653693
0.0653693
0.0653693
0.0653693
0.0653693
0.0653693
0.0653693
0.0653693
0.0653693
0.0653693
0.0653693
0.0653693
0.0653693
0.0653693
0.0653692
0.0653692
0.0653692
0.0653692
0.0653692
0.0653692
0.0653692
0.0653692
0.0653692
0.0653692
0.0653692
0.0653692
0.0653692
0.0653692
0.0653692
0.0653692
0.0653692
0.0653692
0.0653692
0.0653692
0.0653692
0.0653691
0.0653691
0.0653691
0.0653691
0.0653691
0.0644875
0.0644875
0.0644875
0.0644875
0.0644875
0.0644875
0.0644874
0.0644874
0.0644874
0.0644874
0.0644874
0.0644874
0.0644874
0.0644874
0.0644874
0.0644874
0.0644874
0.0644874
0.0644874
0.0644874
0.0644874
0.0644874
0.0644874
0.0644874
0.0644873
0.0644873
0.0644873
0.0644873
0.0644873
0.0644873
0.0644873
0.0644873
0.0644873
0.0644873
0.0644873
0.0644873
0.0644873
0.0644873
0.0644873
0.0644873
0.0644873
0.0644873
0.0644873
0.0644873
0.0644873
0.0644873
0.0644873
0.0644873
0.0644873
0.0644873
0.0635853
0.0635853
0.0635853
0.0635853
0.0635853
0.0635853
0.0635853
0.0635853
0.0635853
0.0635853
0.0635853
0.0635853
0.0635853
0.0635853
0.0635853
0.0635853
0.0635852
0.0635852
0.0635852
0.0635852
0.0635852
0.0635852
0.0635852
0.0635852
0.0635852
0.0635852
0.0635852
0.0635852
0.0635852
0.0635852
0.0635852
0.0635852
0.0635852
0.0635852
0.0635852
0.0635852
0.0635852
0.0635852
0.0635852
0.0635852
0.0635852
0.0635852
0.0635852
0.0635852
0.0635852
0.0635852
0.0635851
0.0635851
0.0635851
0.0635851
0.0626624