/*--------------------------------*- C++ -*----------------------------------*\
| =========                 |                                                 |
| \\      /  F ield         | OpenFOAM: The Open Source CFD Toolbox           |
|  \\    /   O peration     | Version:  5.x                                   |
|   \\  /    A nd           | Web:      www.OpenFOAM.org                      |
|    \\/     M anipulation  |                                                 |
\*---------------------------------------------------------------------------*/
FoamFile
{
    version     2.0;
    format      ascii;
    class       surfaceScalarField;
    location    "8";
    object      phi;
}
// * * * * * * * * * * * * * * * * * * * * * * * * * * * * * * * * * * * * * //

dimensions      [0 3 -1 0 0 0 0];

internalField   nonuniform List<scalar> 
9850
(
-3.95442e-10
4.19123e-08
-1.5599e-09
1.18179e-07
-3.47315e-09
1.84017e-07
-6.16062e-09
2.40572e-07
-9.68582e-09
2.88877e-07
-1.4144e-08
3.2986e-07
-1.96585e-08
3.6436e-07
-2.63789e-08
3.93135e-07
-3.44793e-08
4.16868e-07
-4.41578e-08
4.36177e-07
-5.56353e-08
4.51619e-07
-6.9155e-08
4.63698e-07
-8.49803e-08
4.72867e-07
-1.03391e-07
4.79532e-07
-1.24679e-07
4.84052e-07
-1.49137e-07
4.86744e-07
-1.77044e-07
4.87875e-07
-2.08651e-07
4.87667e-07
-2.44156e-07
4.86293e-07
-2.83679e-07
4.83877e-07
-3.27239e-07
4.80495e-07
-3.74725e-07
4.76179e-07
-4.25879e-07
4.70922e-07
-4.80278e-07
4.64689e-07
-5.37329e-07
4.5742e-07
-5.96272e-07
4.49045e-07
-6.5619e-07
4.39497e-07
-7.16027e-07
4.28715e-07
-7.7462e-07
4.16658e-07
-8.30729e-07
4.03308e-07
-8.83074e-07
3.88676e-07
-9.30368e-07
3.72802e-07
-9.71356e-07
3.55756e-07
-1.00485e-06
3.37633e-07
-1.02973e-06
3.18551e-07
-1.04502e-06
2.98643e-07
-1.04985e-06
2.78055e-07
-1.04347e-06
2.56941e-07
-1.02531e-06
2.35453e-07
-9.94894e-07
2.13741e-07
-9.51917e-07
1.91949e-07
-8.96182e-07
1.70211e-07
-8.27613e-07
1.48646e-07
-7.46236e-07
1.27362e-07
-6.5217e-07
1.06451e-07
-5.45609e-07
8.59892e-08
-4.26807e-07
6.60374e-08
-2.96069e-07
4.66424e-08
-1.53734e-07
2.7836e-08
9.47684e-09
-7.8604e-10
4.26984e-08
-2.95856e-09
1.20352e-07
-6.38251e-09
1.87441e-07
-1.09672e-08
2.45157e-07
-1.66552e-08
2.94565e-07
-2.34241e-08
3.36629e-07
-3.1286e-08
3.72222e-07
-4.02895e-08
4.02139e-07
-5.052e-08
4.27099e-07
-6.2099e-08
4.47756e-07
-7.51799e-08
4.647e-07
-8.99401e-08
4.78458e-07
-1.06567e-07
4.89493e-07
-1.25236e-07
4.98201e-07
-1.46089e-07
5.04905e-07
-1.69199e-07
5.09854e-07
-1.94544e-07
5.13221e-07
-2.2198e-07
5.15103e-07
-2.51217e-07
5.1553e-07
-2.81812e-07
5.14472e-07
-3.13175e-07
5.11857e-07
-3.4458e-07
5.07583e-07
-3.75199e-07
5.01542e-07
-4.04146e-07
4.93635e-07
-4.30513e-07
4.83787e-07
-4.53432e-07
4.71964e-07
-4.72112e-07
4.58177e-07
-4.85883e-07
4.42487e-07
-4.94232e-07
4.25006e-07
-4.96816e-07
4.05892e-07
-4.93482e-07
3.85342e-07
-4.84262e-07
3.63582e-07
-4.69366e-07
3.4086e-07
-4.49167e-07
3.17434e-07
-4.24179e-07
2.93563e-07
-3.95036e-07
2.69499e-07
-3.62463e-07
2.45483e-07
-3.27256e-07
2.21734e-07
-2.90255e-07
1.98451e-07
-2.52322e-07
1.75808e-07
-2.14326e-07
1.53954e-07
-1.77126e-07
1.3301e-07
-1.41553e-07
1.13073e-07
-1.08407e-07
9.4217e-08
-7.84486e-08
7.64924e-08
-5.23897e-08
5.99303e-08
-3.08962e-08
4.45439e-08
-1.45845e-08
3.03308e-08
-4.02291e-09
1.72744e-08
5.45393e-09
-1.45804e-09
4.41564e-08
-5.71674e-09
1.24611e-07
-1.25388e-08
1.94263e-07
-2.17823e-08
2.544e-07
-3.33831e-08
3.06165e-07
-4.73287e-08
3.50574e-07
-6.36421e-08
3.88536e-07
-8.23678e-08
4.20865e-07
-1.03558e-07
4.48289e-07
-1.27258e-07
4.71455e-07
-1.53482e-07
4.90924e-07
-1.82195e-07
5.07171e-07
-2.1328e-07
5.20579e-07
-2.46516e-07
5.31437e-07
-2.81551e-07
5.39939e-07
-3.17886e-07
5.46189e-07
-3.54876e-07
5.50211e-07
-3.91738e-07
5.51965e-07
-4.27577e-07
5.51369e-07
-4.6143e-07
5.48325e-07
-4.92312e-07
5.42739e-07
-5.19274e-07
5.34545e-07
-5.41457e-07
5.23726e-07
-5.58143e-07
5.10321e-07
-5.68789e-07
4.94433e-07
-5.73055e-07
4.76231e-07
-5.70818e-07
4.5594e-07
-5.62167e-07
4.33836e-07
-5.4739e-07
4.10229e-07
-5.26953e-07
3.85455e-07
-5.01466e-07
3.59855e-07
-4.71654e-07
3.3377e-07
-4.3832e-07
3.07526e-07
-4.0231e-07
2.81425e-07
-3.64486e-07
2.55739e-07
-3.25695e-07
2.30708e-07
-2.86744e-07
2.06532e-07
-2.48388e-07
1.83377e-07
-2.11308e-07
1.61371e-07
-1.76109e-07
1.40609e-07
-1.43306e-07
1.21152e-07
-1.13331e-07
1.03035e-07
-8.65252e-08
8.62674e-08
-6.31468e-08
7.08387e-08
-4.33745e-08
5.67201e-08
-2.73136e-08
4.38693e-08
-1.50032e-08
3.22335e-08
-6.42427e-09
2.17519e-08
-1.50822e-09
1.23584e-08
3.94571e-09
-1.69288e-09
4.58493e-08
-6.4178e-09
1.29336e-07
-1.38581e-08
2.01703e-07
-2.37766e-08
2.64319e-07
-3.59932e-08
3.18382e-07
-5.03768e-08
3.64958e-07
-6.68335e-08
4.04992e-07
-8.52912e-08
4.39322e-07
-1.0568e-07
4.68678e-07
-1.27906e-07
4.93682e-07
-1.51827e-07
5.14845e-07
-1.77218e-07
5.32562e-07
-2.03755e-07
5.47116e-07
-2.30998e-07
5.58679e-07
-2.58385e-07
5.67327e-07
-2.85255e-07
5.73059e-07
-3.10867e-07
5.75823e-07
-3.34449e-07
5.75546e-07
-3.55237e-07
5.72158e-07
-3.72536e-07
5.65623e-07
-3.85755e-07
5.55958e-07
-3.94455e-07
5.43245e-07
-3.98365e-07
5.27636e-07
-3.97402e-07
5.09357e-07
-3.91662e-07
4.88693e-07
-3.81411e-07
4.6598e-07
-3.67059e-07
4.41589e-07
-3.49134e-07
4.1591e-07
-3.2824e-07
3.89336e-07
-3.05033e-07
3.62247e-07
-2.80181e-07
3.35004e-07
-2.54341e-07
3.0793e-07
-2.28132e-07
2.81316e-07
-2.02114e-07
2.55407e-07
-1.76781e-07
2.30407e-07
-1.52549e-07
2.06476e-07
-1.29753e-07
1.83736e-07
-1.08647e-07
1.62272e-07
-8.94123e-08
1.42136e-07
-7.21578e-08
1.23354e-07
-5.69319e-08
1.05926e-07
-4.37303e-08
8.9833e-08
-3.25047e-08
7.50418e-08
-2.31726e-08
6.15066e-08
-1.56253e-08
4.91728e-08
-9.73599e-09
3.798e-08
-5.36641e-09
2.7864e-08
-2.37287e-09
1.87583e-08
-6.10849e-10
1.05963e-08
3.33486e-09
-1.97135e-09
4.78206e-08
-7.61977e-09
1.34984e-07
-1.65529e-08
2.10637e-07
-2.84724e-08
2.76238e-07
-4.31485e-08
3.33058e-07
-6.03924e-08
3.82202e-07
-8.003e-08
4.2463e-07
-1.01876e-07
4.61168e-07
-1.25704e-07
4.92506e-07
-1.51224e-07
5.19202e-07
-1.78056e-07
5.41676e-07
-2.05718e-07
5.60224e-07
-2.33624e-07
5.75023e-07
-2.61098e-07
5.86154e-07
-2.874e-07
5.93629e-07
-3.11764e-07
5.97423e-07
-3.33444e-07
5.97503e-07
-3.51762e-07
5.93864e-07
-3.66152e-07
5.86547e-07
-3.76192e-07
5.75664e-07
-3.81633e-07
5.61399e-07
-3.824e-07
5.44012e-07
-3.78595e-07
5.23831e-07
-3.70476e-07
5.01238e-07
-3.58435e-07
4.76652e-07
-3.42967e-07
4.50511e-07
-3.24636e-07
4.23258e-07
-3.04044e-07
3.95318e-07
-2.818e-07
3.67091e-07
-2.58493e-07
3.3894e-07
-2.34674e-07
3.11185e-07
-2.1084e-07
2.84097e-07
-1.87424e-07
2.579e-07
-1.64791e-07
2.32774e-07
-1.43235e-07
2.08851e-07
-1.22987e-07
1.86227e-07
-1.04213e-07
1.64962e-07
-8.70263e-08
1.45085e-07
-7.149e-08
1.266e-07
-5.76284e-08
1.09493e-07
-4.5432e-08
9.37294e-08
-3.48648e-08
7.92659e-08
-2.58706e-08
6.60476e-08
-1.83779e-08
5.40139e-08
-1.23048e-08
4.30997e-08
-7.56244e-09
3.32376e-08
-4.05814e-09
2.43597e-08
-1.69779e-09
1.6398e-08
-3.87676e-10
9.28622e-09
2.94718e-09
-1.99375e-09
4.98144e-08
-7.59694e-09
1.40587e-07
-1.63847e-08
2.19424e-07
-2.80046e-08
2.87858e-07
-4.21506e-08
3.47204e-07
-5.8543e-08
3.98594e-07
-7.69041e-08
4.42991e-07
-9.69332e-08
4.81197e-07
-1.18282e-07
5.13856e-07
-1.40538e-07
5.41458e-07
-1.63213e-07
5.64351e-07
-1.85746e-07
5.82757e-07
-2.07522e-07
5.96798e-07
-2.27897e-07
6.06529e-07
-2.46239e-07
6.11971e-07
-2.61965e-07
6.13148e-07
-2.74581e-07
6.10119e-07
-2.83714e-07
6.02996e-07
-2.89135e-07
5.91968e-07
-2.90768e-07
5.77298e-07
-2.88689e-07
5.5932e-07
-2.83109e-07
5.38432e-07
-2.74354e-07
5.15077e-07
-2.6284e-07
4.89723e-07
-2.49037e-07
4.62849e-07
-2.33447e-07
4.34921e-07
-2.16572e-07
4.06382e-07
-1.98892e-07
3.77638e-07
-1.80852e-07
3.49051e-07
-1.62845e-07
3.20933e-07
-1.45207e-07
2.93547e-07
-1.28215e-07
2.67104e-07
-1.12084e-07
2.4177e-07
-9.69777e-08
2.17667e-07
-8.30051e-08
1.94879e-07
-7.02329e-08
1.73455e-07
-5.86898e-08
1.53419e-07
-4.83737e-08
1.34769e-07
-3.92581e-08
1.17485e-07
-3.12978e-08
1.01532e-07
-2.44339e-08
8.68656e-08
-1.85984e-08
7.34303e-08
-1.37175e-08
6.11667e-08
-9.71467e-09
5.00111e-08
-6.51293e-09
3.98979e-08
-4.03659e-09
3.07613e-08
-2.21253e-09
2.25356e-08
-9.71181e-10
1.51566e-08
-2.47053e-10
8.56209e-09
2.70013e-09
-2.02674e-09
5.18411e-08
-7.78567e-09
1.46346e-07
-1.68232e-08
2.28462e-07
-2.87517e-08
2.99787e-07
-4.32228e-08
3.61675e-07
-5.98978e-08
4.15269e-07
-7.84203e-08
4.61514e-07
-9.8393e-08
5.0117e-07
-1.19361e-07
5.34824e-07
-1.40806e-07
5.62903e-07
-1.62152e-07
5.85696e-07
-1.82783e-07
6.03388e-07
-2.02073e-07
6.16089e-07
-2.19422e-07
6.23879e-07
-2.34293e-07
6.26843e-07
-2.46246e-07
6.25101e-07
-2.54962e-07
6.18835e-07
-2.60263e-07
6.08297e-07
-2.62112e-07
5.93818e-07
-2.60609e-07
5.75794e-07
-2.55971e-07
5.54682e-07
-2.48513e-07
5.30974e-07
-2.38618e-07
5.05182e-07
-2.26713e-07
4.77818e-07
-2.13238e-07
4.49374e-07
-1.98629e-07
4.20313e-07
-1.83299e-07
3.91053e-07
-1.67623e-07
3.61962e-07
-1.5193e-07
3.33358e-07
-1.36501e-07
3.05504e-07
-1.21563e-07
2.7861e-07
-1.073e-07
2.5284e-07
-9.38451e-08
2.28316e-07
-8.12957e-08
2.05118e-07
-6.97125e-08
1.83295e-07
-5.91274e-08
1.6287e-07
-4.95484e-08
1.4384e-07
-4.09644e-08
1.26184e-07
-3.33496e-08
1.0987e-07
-2.66673e-08
9.48499e-08
-2.08728e-08
8.10711e-08
-1.59163e-08
6.84739e-08
-1.17448e-08
5.69952e-08
-8.30363e-09
4.65699e-08
-5.53807e-09
3.71324e-08
-3.39405e-09
2.86173e-08
-1.81897e-09
2.09605e-08
-7.62191e-10
1.40998e-08
-1.75382e-10
7.97528e-09
2.52475e-09
-1.93942e-09
5.37806e-08
-7.39482e-09
1.51801e-07
-1.59094e-08
2.36976e-07
-2.70719e-08
3.10949e-07
-4.04898e-08
3.75093e-07
-5.57663e-08
4.30546e-07
-7.24797e-08
4.78227e-07
-9.01696e-08
5.1886e-07
-1.08331e-07
5.52985e-07
-1.2642e-07
5.80992e-07
-1.43871e-07
6.03148e-07
-1.60123e-07
6.1964e-07
-1.74651e-07
6.30617e-07
-1.86997e-07
6.36224e-07
-1.96797e-07
6.36643e-07
-2.03806e-07
6.3211e-07
-2.07901e-07
6.2293e-07
-2.09087e-07
6.09484e-07
-2.07485e-07
5.92215e-07
-2.03312e-07
5.71622e-07
-1.96864e-07
5.48233e-07
-1.88485e-07
5.22595e-07
-1.78549e-07
4.95246e-07
-1.67433e-07
4.66702e-07
-1.55503e-07
4.37444e-07
-1.43096e-07
4.07906e-07
-1.30514e-07
3.7847e-07
-1.18016e-07
3.49464e-07
-1.05817e-07
3.21159e-07
-9.40881e-08
2.93775e-07
-8.29614e-08
2.67483e-07
-7.25306e-08
2.42409e-07
-6.28574e-08
2.18643e-07
-5.39766e-08
1.96237e-07
-4.59001e-08
1.75219e-07
-3.86222e-08
1.55592e-07
-3.21229e-08
1.3734e-07
-2.6372e-08
1.20434e-07
-2.13316e-08
1.04829e-07
-1.69591e-08
9.04774e-08
-1.32087e-08
7.73207e-08
-1.00334e-08
6.52986e-08
-7.38614e-09
5.43479e-08
-5.22056e-09
4.44043e-08
-3.49191e-09
3.54037e-08
-2.15745e-09
2.72828e-08
-1.17679e-09
1.99799e-08
-5.1208e-10
1.34351e-08
-1.28095e-10
7.5913e-09
2.39665e-09
-1.8724e-09
5.56529e-08
-7.16718e-09
1.57096e-07
-1.54197e-08
2.45229e-07
-2.61988e-08
3.21728e-07
-3.90824e-08
3.87977e-07
-5.36355e-08
4.45099e-07
-6.93938e-08
4.93985e-07
-8.58574e-08
5.35323e-07
-1.02495e-07
5.69623e-07
-1.18758e-07
5.97255e-07
-1.34105e-07
6.18494e-07
-1.48029e-07
6.33564e-07
-1.60087e-07
6.42675e-07
-1.69926e-07
6.46063e-07
-1.77298e-07
6.44016e-07
-1.82075e-07
6.36886e-07
-1.84241e-07
6.25096e-07
-1.83887e-07
6.0913e-07
-1.81196e-07
5.89524e-07
-1.76418e-07
5.66843e-07
-1.6985e-07
5.41665e-07
-1.61815e-07
5.14561e-07
-1.52643e-07
4.86073e-07
-1.42651e-07
4.5671e-07
-1.32136e-07
4.26929e-07
-1.21363e-07
3.97133e-07
-1.10561e-07
3.67669e-07
-9.99248e-08
3.38828e-07
-8.96091e-08
3.10843e-07
-7.97361e-08
2.83902e-07
-7.03961e-08
2.58143e-07
-6.16524e-08
2.33666e-07
-5.3545e-08
2.10535e-07
-4.60943e-08
1.88786e-07
-3.93052e-08
1.6843e-07
-3.31702e-08
1.49457e-07
-2.76722e-08
1.31842e-07
-2.27871e-08
1.15548e-07
-1.84858e-08
1.00528e-07
-1.47359e-08
8.67274e-08
-1.15028e-08
7.40876e-08
-8.75117e-09
6.2547e-08
-6.4455e-09
5.20422e-08
-4.55075e-09
4.25096e-08
-3.03289e-09
3.38859e-08
-1.85911e-09
2.6109e-08
-9.98168e-10
1.91189e-08
-4.20435e-10
1.28574e-08
-9.80263e-11
7.26889e-09
2.29863e-09
-1.75987e-09
5.74128e-08
-6.70401e-09
1.6204e-07
-1.43725e-08
2.52897e-07
-2.4323e-08
3.31679e-07
-3.61105e-08
3.99764e-07
-4.92725e-08
4.58261e-07
-6.33217e-08
5.08035e-07
-7.77484e-08
5.4975e-07
-9.20321e-08
5.83906e-07
-1.05661e-07
6.10884e-07
-1.1816e-07
6.30993e-07
-1.29109e-07
6.44514e-07
-1.38176e-07
6.51741e-07
-1.45124e-07
6.53011e-07
-1.49823e-07
6.48715e-07
-1.5225e-07
6.39313e-07
-1.52477e-07
6.25323e-07
-1.50658e-07
6.07312e-07
-1.4701e-07
5.85876e-07
-1.41793e-07
5.61626e-07
-1.35287e-07
5.3516e-07
-1.2778e-07
5.07053e-07
-1.19549e-07
4.77842e-07
-1.10852e-07
4.48013e-07
-1.01918e-07
4.17995e-07
-9.29475e-08
3.88162e-07
-8.4106e-08
3.58828e-07
-7.55279e-08
3.30249e-07
-6.73173e-08
3.02633e-07
-5.95511e-08
2.76136e-07
-5.22825e-08
2.50874e-07
-4.55446e-08
2.26928e-07
-3.93538e-08
2.04344e-07
-3.3713e-08
1.83145e-07
-2.86143e-08
1.63331e-07
-2.4042e-08
1.44885e-07
-1.99742e-08
1.27775e-07
-1.63851e-08
1.11959e-07
-1.3246e-08
9.7389e-08
-1.05267e-08
8.40081e-08
-8.19635e-09
7.17573e-08
-6.22426e-09
6.05749e-08
-4.58033e-09
5.03983e-08
-3.23546e-09
4.11647e-08
-2.16184e-09
3.28122e-08
-1.33314e-09
2.52803e-08
-7.24603e-10
1.85104e-08
-3.13117e-10
1.24459e-08
-7.72071e-11
7.03298e-09
2.22142e-09
-1.67083e-09
5.90836e-08
-6.37487e-09
1.66744e-07
-1.36503e-08
2.60173e-07
-2.30427e-08
3.41071e-07
-3.40906e-08
4.10812e-07
-4.6316e-08
4.70486e-07
-5.92227e-08
5.20941e-07
-7.23046e-08
5.62832e-07
-8.50621e-08
5.96664e-07
-9.70244e-08
6.22846e-07
-1.07772e-07
6.41741e-07
-1.16961e-07
6.53702e-07
-1.24334e-07
6.59114e-07
-1.29733e-07
6.5841e-07
-1.331e-07
6.52082e-07
-1.34467e-07
6.4068e-07
-1.33945e-07
6.248e-07
-1.31706e-07
6.05073e-07
-1.27967e-07
5.82137e-07
-1.22969e-07
5.56628e-07
-1.16963e-07
5.29154e-07
-1.10195e-07
5.00286e-07
-1.02898e-07
4.70545e-07
-9.52804e-08
4.40396e-07
-8.75276e-08
4.10242e-07
-7.97954e-08
3.8043e-07
-7.22125e-08
3.51245e-07
-6.48812e-08
3.22918e-07
-5.78796e-08
2.95631e-07
-5.12648e-08
2.69521e-07
-4.50756e-08
2.44685e-07
-3.93353e-08
2.21188e-07
-3.40548e-08
1.99064e-07
-2.92349e-08
1.78325e-07
-2.48683e-08
1.58965e-07
-2.09419e-08
1.40958e-07
-1.74382e-08
1.24271e-07
-1.43366e-08
1.08858e-07
-1.16143e-08
9.46667e-08
-9.24738e-09
8.16412e-08
-7.21159e-09
6.97215e-08
-5.48252e-09
5.88458e-08
-4.0362e-09
4.8952e-08
-2.84936e-09
3.99779e-08
-1.89965e-09
3.18625e-08
-1.16572e-09
2.45464e-08
-6.27386e-10
1.79721e-08
-2.65642e-10
1.20842e-08
-6.26762e-11
6.83001e-09
2.15874e-09
-1.56811e-09
6.06518e-08
-5.9616e-09
1.71138e-07
-1.27234e-08
2.66935e-07
-2.13939e-08
3.49742e-07
-3.15027e-08
4.20921e-07
-4.25662e-08
4.8155e-07
-5.40931e-08
5.32468e-07
-6.55972e-08
5.74336e-07
-7.66163e-08
6.07683e-07
-8.67336e-08
6.32964e-07
-9.55977e-08
6.50605e-07
-1.02939e-07
6.61043e-07
-1.08577e-07
6.64752e-07
-1.12425e-07
6.62258e-07
-1.14483e-07
6.5414e-07
-1.14826e-07
6.41023e-07
-1.13592e-07
6.23567e-07
-1.10962e-07
6.02443e-07
-1.07144e-07
5.78319e-07
-1.0236e-07
5.51843e-07
-9.68279e-08
5.23622e-07
-9.07584e-08
4.94216e-07
-8.43427e-08
4.64129e-07
-7.77498e-08
4.33803e-07
-7.11246e-08
4.03617e-07
-6.45874e-08
3.73893e-07
-5.82348e-08
3.44892e-07
-5.21414e-08
3.16825e-07
-4.63628e-08
2.89853e-07
-4.09375e-08
2.64096e-07
-3.58898e-08
2.39638e-07
-3.12324e-08
2.1653e-07
-2.69685e-08
1.948e-07
-2.30937e-08
1.74451e-07
-1.9598e-08
1.55469e-07
-1.64672e-08
1.37828e-07
-1.36839e-08
1.21488e-07
-1.12288e-08
1.06403e-07
-9.08129e-09
9.25192e-08
-7.22026e-09
7.97802e-08
-5.62445e-09
6.81257e-08
-4.27292e-09
5.74943e-08
-3.14528e-09
4.78243e-08
-2.22194e-09
3.90545e-08
-1.48421e-09
3.11248e-08
-9.14423e-10
2.39766e-08
-4.95975e-10
1.75536e-08
-2.13342e-10
1.18015e-08
-5.20831e-11
6.66875e-09
2.10666e-09
-1.48413e-09
6.21359e-08
-5.64352e-09
1.75297e-07
-1.20215e-08
2.73313e-07
-2.01524e-08
3.57873e-07
-2.95605e-08
4.30329e-07
-3.97634e-08
4.91752e-07
-5.02806e-08
5.42985e-07
-6.06501e-08
5.84705e-07
-7.04469e-08
6.1748e-07
-7.93022e-08
6.41819e-07
-8.69197e-08
6.58222e-07
-9.30862e-08
6.67209e-07
-9.76752e-08
6.69341e-07
-1.00644e-07
6.65227e-07
-1.02026e-07
6.55522e-07
-1.01916e-07
6.40913e-07
-1.00457e-07
6.22107e-07
-9.78221e-08
5.99808e-07
-9.42042e-08
5.74701e-07
-8.97992e-08
5.47438e-07
-8.47979e-08
5.18621e-07
-7.9378e-08
4.88796e-07
-7.36997e-08
4.58451e-07
-6.79026e-08
4.28006e-07
-6.21049e-08
3.9782e-07
-5.64038e-08
3.68192e-07
-5.08765e-08
3.39365e-07
-4.55827e-08
3.11531e-07
-4.05659e-08
2.84836e-07
-3.58563e-08
2.59386e-07
-3.14728e-08
2.35254e-07
-2.74248e-08
2.12482e-07
-2.37142e-08
1.91089e-07
-2.03371e-08
1.71073e-07
-1.7285e-08
1.52417e-07
-1.4546e-08
1.35088e-07
-1.21057e-08
1.19047e-07
-9.94829e-09
1.04245e-07
-8.05672e-09
9.06276e-08
-6.41354e-09
7.8137e-08
-5.00118e-09
6.67133e-08
-3.80224e-09
5.62953e-08
-2.79975e-09
4.68218e-08
-1.97729e-09
3.82321e-08
-1.31918e-09
3.04667e-08
-8.10496e-10
2.34679e-08
-4.37131e-10
1.71802e-08
-1.85841e-10
1.15502e-08
-4.42304e-11
6.52714e-09
2.06243e-09
-1.39729e-09
6.35332e-08
-5.29837e-09
1.79198e-07
-1.12517e-08
2.79266e-07
-1.87915e-08
3.65412e-07
-2.74431e-08
4.38981e-07
-3.67318e-08
5.01041e-07
-4.6196e-08
5.5245e-07
-5.54039e-08
5.93913e-07
-6.39721e-08
6.26048e-07
-7.15814e-08
6.49428e-07
-7.79884e-08
6.64629e-07
-8.30317e-08
6.72253e-07
-8.66306e-08
6.7294e-07
-8.87791e-08
6.67376e-07
-8.95351e-08
6.56278e-07
-8.90065e-08
6.40385e-07
-8.7337e-08
6.20438e-07
-8.46923e-08
5.97163e-07
-8.12472e-08
5.71256e-07
-7.71755e-08
5.43366e-07
-7.26428e-08
5.14088e-07
-6.78e-08
4.83954e-07
-6.27812e-08
4.53432e-07
-5.77014e-08
4.22926e-07
-5.26567e-08
3.92775e-07
-4.77248e-08
3.6326e-07
-4.29668e-08
3.34607e-07
-3.8429e-08
3.06993e-07
-3.41443e-08
2.80551e-07
-3.0135e-08
2.55377e-07
-2.64139e-08
2.31533e-07
-2.29864e-08
2.09055e-07
-1.9852e-08
1.87955e-07
-1.70053e-08
1.68227e-07
-1.44378e-08
1.49849e-07
-1.21379e-08
1.32789e-07
-1.00925e-08
1.17002e-07
-8.28716e-09
1.0244e-07
-6.70677e-09
8.90472e-08
-5.33594e-09
7.67662e-08
-4.15929e-09
6.55367e-08
-3.16169e-09
5.52977e-08
-2.32846e-09
4.59886e-08
-1.64546e-09
3.75491e-08
-1.09924e-09
2.99205e-08
-6.77035e-10
2.30457e-08
-3.66831e-10
1.687e-08
-1.57379e-10
1.13408e-08
-3.81909e-11
6.40796e-09
2.02424e-09
-1.32273e-09
6.48559e-08
-5.01317e-09
1.82889e-07
-1.06232e-08
2.84876e-07
-1.76874e-08
3.72477e-07
-2.57348e-08
4.47028e-07
-3.43015e-08
5.09608e-07
-4.29462e-08
5.61094e-07
-5.12673e-08
6.02234e-07
-5.89185e-08
6.33699e-07
-6.56223e-08
6.56132e-07
-7.11772e-08
6.70184e-07
-7.546e-08
6.76535e-07
-7.84213e-08
6.75902e-07
-8.00775e-08
6.69032e-07
-8.04988e-08
6.56699e-07
-7.97959e-08
6.39682e-07
-7.81067e-08
6.18749e-07
-7.55842e-08
5.94641e-07
-7.23856e-08
5.68058e-07
-6.86645e-08
5.39645e-07
-6.45649e-08
5.09988e-07
-6.02166e-08
4.79605e-07
-5.57338e-08
4.48949e-07
-5.12135e-08
4.18405e-07
-4.67365e-08
3.88298e-07
-4.23678e-08
3.58891e-07
-3.81581e-08
3.30397e-07
-3.41458e-08
3.02981e-07
-3.03581e-08
2.76763e-07
-2.68132e-08
2.51832e-07
-2.35215e-08
2.28241e-07
-2.04874e-08
2.06021e-07
-1.77101e-08
1.85178e-07
-1.51851e-08
1.65702e-07
-1.29049e-08
1.47569e-07
-1.08597e-08
1.30743e-07
-9.03822e-09
1.15181e-07
-7.4282e-09
1.0083e-07
-6.0167e-09
8.76357e-08
-4.79056e-09
7.554e-08
-3.73657e-09
6.44827e-08
-2.84171e-09
5.44029e-08
-2.09332e-09
4.52402e-08
-1.47915e-09
3.69349e-08
-9.87531e-10
2.94288e-08
-6.07335e-10
2.26655e-08
-3.28065e-10
1.65908e-08
-1.39856e-10
1.11526e-08
-3.34717e-11
6.30157e-09
1.99077e-09
-1.24828e-09
6.61042e-08
-4.72046e-09
1.86361e-07
-9.97594e-09
2.90132e-07
-1.65545e-08
3.79055e-07
-2.39935e-08
4.54467e-07
-3.18444e-08
5.17459e-07
-3.96894e-08
5.68939e-07
-4.7158e-08
6.09703e-07
-5.39407e-08
6.40482e-07
-5.97987e-08
6.6199e-07
-6.45678e-08
6.74953e-07
-6.81572e-08
6.80125e-07
-7.05431e-08
6.78288e-07
-7.17589e-08
6.70248e-07
-7.1883e-08
6.56823e-07
-7.10262e-08
6.38825e-07
-6.93196e-08
6.17042e-07
-6.69041e-08
5.92225e-07
-6.39215e-08
5.65075e-07
-6.05076e-08
5.36231e-07
-5.67882e-08
5.06269e-07
-5.28755e-08
4.75693e-07
-4.88668e-08
4.4494e-07
-4.48446e-08
4.14383e-07
-4.08767e-08
3.8433e-07
-3.70173e-08
3.55032e-07
-3.33083e-08
3.26689e-07
-2.97812e-08
2.99454e-07
-2.64577e-08
2.7344e-07
-2.33523e-08
2.48727e-07
-2.04729e-08
2.25362e-07
-1.78219e-08
2.0337e-07
-1.5398e-08
1.82754e-07
-1.31964e-08
1.635e-07
-1.121e-08
1.45583e-07
-9.42972e-09
1.28963e-07
-7.8454e-09
1.13596e-07
-6.44597e-09
9.94304e-08
-5.2199e-09
8.64097e-08
-4.15546e-09
7.44756e-08
-3.24097e-09
6.35682e-08
-2.46493e-09
5.36268e-08
-1.81615e-09
4.45914e-08
-1.2839e-09
3.64027e-08
-8.57886e-10
2.90028e-08
-5.28368e-10
2.2336e-08
-2.8615e-10
1.63486e-08
-1.22601e-10
1.0989e-08
-2.9654e-11
6.20863e-09
1.96111e-09
-1.18123e-09
6.72854e-08
-4.4635e-09
1.89643e-07
-9.41372e-09
2.95082e-07
-1.55781e-08
3.85219e-07
-2.25043e-08
4.61394e-07
-2.97603e-08
5.24715e-07
-3.69515e-08
5.76131e-07
-4.37362e-08
6.16488e-07
-4.98369e-08
6.46583e-07
-5.50468e-08
6.672e-07
-5.92309e-08
6.79137e-07
-6.23223e-08
6.83216e-07
-6.43146e-08
6.8028e-07
-6.52507e-08
6.71184e-07
-6.52118e-08
6.56784e-07
-6.4305e-08
6.37918e-07
-6.26528e-08
6.1539e-07
-6.03841e-08
5.89957e-07
-5.76262e-08
5.62317e-07
-5.45e-08
5.33105e-07
-5.11161e-08
5.02885e-07
-4.75725e-08
4.72149e-07
-4.3954e-08
4.41322e-07
-4.03317e-08
4.10761e-07
-3.67643e-08
3.80763e-07
-3.32982e-08
3.51566e-07
-2.99695e-08
3.2336e-07
-2.6805e-08
2.96289e-07
-2.38235e-08
2.70459e-07
-2.10372e-08
2.4594e-07
-1.84526e-08
2.22777e-07
-1.6072e-08
2.00989e-07
-1.3894e-08
1.80576e-07
-1.19144e-08
1.61521e-07
-1.01269e-08
1.43795e-07
-8.52353e-09
1.2736e-07
-7.09547e-09
1.12168e-07
-5.83295e-09
9.81678e-08
-4.72585e-09
8.53026e-08
-3.76387e-09
7.35136e-08
-2.93669e-09
6.2741e-08
-2.23416e-09
5.29243e-08
-1.6464e-09
4.40037e-08
-1.16388e-09
3.59201e-08
-7.77459e-10
2.86164e-08
-4.78474e-10
2.2037e-08
-2.58719e-10
1.61288e-08
-1.10478e-10
1.08408e-08
-2.65277e-11
6.12467e-09
1.93459e-09
-1.11506e-09
6.84005e-08
-4.20619e-09
1.92734e-07
-8.85103e-09
2.99727e-07
-1.46062e-08
3.90975e-07
-2.10328e-08
4.6782e-07
-2.77176e-08
5.31399e-07
-3.42902e-08
5.82703e-07
-4.04368e-08
6.22634e-07
-4.59094e-08
6.52055e-07
-5.05297e-08
6.7182e-07
-5.41878e-08
6.82796e-07
-5.68365e-08
6.85865e-07
-5.84824e-08
6.81926e-07
-5.91755e-08
6.71877e-07
-5.89976e-08
6.56606e-07
-5.80514e-08
6.36972e-07
-5.64514e-08
6.1379e-07
-5.43151e-08
5.8782e-07
-5.17574e-08
5.5976e-07
-4.88864e-08
5.30234e-07
-4.57996e-08
4.99798e-07
-4.25833e-08
4.68933e-07
-3.93115e-08
4.3805e-07
-3.6046e-08
4.07496e-07
-3.28374e-08
3.77554e-07
-2.97258e-08
3.48454e-07
-2.6742e-08
3.20376e-07
-2.39089e-08
2.93456e-07
-2.12423e-08
2.67792e-07
-1.87523e-08
2.4345e-07
-1.64442e-08
2.20469e-07
-1.43194e-08
1.98864e-07
-1.23765e-08
1.78633e-07
-1.06112e-08
1.59755e-07
-9.01784e-09
1.42202e-07
-7.58914e-09
1.25931e-07
-6.31697e-09
1.10896e-07
-5.19257e-09
9.70434e-08
-4.20681e-09
8.43168e-08
-3.35044e-09
7.26573e-08
-2.61421e-09
6.20048e-08
-1.98902e-09
5.22991e-08
-1.46602e-09
4.34807e-08
-1.03668e-09
3.54908e-08
-6.92844e-10
2.82726e-08
-4.26752e-10
2.17709e-08
-2.31081e-10
1.59331e-08
-9.89431e-11
1.07087e-08
-2.3892e-11
6.04962e-09
1.91069e-09
-1.05348e-09
6.9454e-08
-3.97075e-09
1.95652e-07
-8.34091e-09
3.04097e-07
-1.37322e-08
3.96366e-07
-1.97205e-08
4.73808e-07
-2.59116e-08
5.37591e-07
-3.19581e-08
5.8875e-07
-3.75716e-08
6.28248e-07
-4.25295e-08
6.57013e-07
-4.66771e-08
6.75968e-07
-4.9924e-08
6.86042e-07
-5.22373e-08
6.88178e-07
-5.36327e-08
6.83321e-07
-5.41634e-08
6.72408e-07
-5.39095e-08
6.56353e-07
-5.29685e-08
6.36031e-07
-5.1446e-08
6.12267e-07
-4.94497e-08
5.85824e-07
-4.70834e-08
5.57393e-07
-4.44439e-08
5.27595e-07
-4.16184e-08
4.96972e-07
-3.86833e-08
4.65998e-07
-3.5704e-08
4.35071e-07
-3.27353e-08
4.04527e-07
-2.98214e-08
3.7464e-07
-2.69977e-08
3.4563e-07
-2.42913e-08
3.1767e-07
-2.17221e-08
2.90887e-07
-1.93041e-08
2.65374e-07
-1.7046e-08
2.41192e-07
-1.49524e-08
2.18376e-07
-1.30246e-08
1.96937e-07
-1.12611e-08
1.76869e-07
-9.65824e-09
1.58153e-07
-8.21077e-09
1.40754e-07
-6.91227e-09
1.24633e-07
-5.75546e-09
1.09739e-07
-4.7325e-09
9.60205e-08
-3.83521e-09
8.34195e-08
-3.0553e-09
7.18773e-08
-2.38447e-09
6.13339e-08
-1.81455e-09
5.17292e-08
-1.33758e-09
4.30037e-08
-9.45867e-10
3.50991e-08
-6.32066e-10
2.79588e-08
-3.89171e-10
2.15281e-08
-2.10561e-10
1.57545e-08
-9.0002e-11
1.05881e-08
-2.16509e-11
5.98127e-09
1.88904e-09
-9.93138e-10
7.04471e-08
-3.7384e-09
1.98397e-07
-7.83869e-09
3.08197e-07
-1.28766e-08
4.01404e-07
-1.84448e-08
4.79377e-07
-2.41691e-08
5.43315e-07
-2.97246e-08
5.94305e-07
-3.48468e-08
6.3337e-07
-3.93362e-08
6.61503e-07
-4.30583e-08
6.7969e-07
-4.59393e-08
6.88923e-07
-4.79578e-08
6.90197e-07
-4.9136e-08
6.84499e-07
-4.95287e-08
6.72801e-07
-4.92139e-08
6.56038e-07
-4.82831e-08
6.351e-07
-4.68346e-08
6.10819e-07
-4.49667e-08
5.83956e-07
-4.27736e-08
5.552e-07
-4.03424e-08
5.25163e-07
-3.77512e-08
4.94381e-07
-3.50681e-08
4.63315e-07
-3.23513e-08
4.32354e-07
-2.9649e-08
4.01825e-07
-2.70006e-08
3.71992e-07
-2.44371e-08
3.43067e-07
-2.19823e-08
3.15215e-07
-1.96536e-08
2.88558e-07
-1.74631e-08
2.63183e-07
-1.54183e-08
2.39147e-07
-1.35233e-08
2.1648e-07
-1.17788e-08
1.95192e-07
-1.01833e-08
1.75274e-07
-8.73342e-09
1.56703e-07
-7.42428e-09
1.39445e-07
-6.25002e-09
1.23458e-07
-5.20398e-09
1.08693e-07
-4.27904e-09
9.50955e-08
-3.46779e-09
8.26083e-08
-2.7627e-09
7.11722e-08
-2.15624e-09
6.07275e-08
-1.64102e-09
5.1214e-08
-1.20982e-09
4.25725e-08
-8.55698e-10
3.4745e-08
-5.71983e-10
2.7675e-08
-3.52342e-10
2.13084e-08
-1.90783e-10
1.5593e-08
-8.1666e-11
1.0479e-08
-1.97041e-11
5.91931e-09
1.86934e-09
-9.36011e-10
7.13831e-08
-3.52085e-09
2.00982e-07
-7.37198e-09
3.12048e-07
-1.20872e-08
4.06119e-07
-1.72767e-08
4.84566e-07
-2.25859e-08
5.48624e-07
-2.77114e-08
5.99431e-07
-3.24099e-08
6.38069e-07
-3.65019e-08
6.65595e-07
-3.98699e-08
6.83058e-07
-4.24528e-08
6.91506e-07
-4.42379e-08
6.91982e-07
-4.52514e-08
6.85513e-07
-4.55481e-08
6.73097e-07
-4.52027e-08
6.55692e-07
-4.43012e-08
6.34199e-07
-4.29343e-08
6.09452e-07
-4.1192e-08
5.82214e-07
-3.91602e-08
5.53168e-07
-3.69175e-08
5.22921e-07
-3.45344e-08
4.91998e-07
-3.20721e-08
4.60852e-07
-2.95827e-08
4.29865e-07
-2.71094e-08
3.99351e-07
-2.46872e-08
3.6957e-07
-2.2344e-08
3.40724e-07
-2.01009e-08
3.12972e-07
-1.79734e-08
2.86431e-07
-1.59723e-08
2.61182e-07
-1.41044e-08
2.37279e-07
-1.2373e-08
2.14749e-07
-1.07789e-08
1.93598e-07
-9.32067e-09
1.73815e-07
-7.9952e-09
1.55377e-07
-6.79809e-09
1.38248e-07
-5.72401e-09
1.22384e-07
-4.76693e-09
1.07736e-07
-3.92041e-09
9.4249e-08
-3.17771e-09
8.18656e-08
-2.532e-09
7.05265e-08
-1.97646e-09
6.01719e-08
-1.50437e-09
5.07419e-08
-1.10916e-09
4.21773e-08
-7.8452e-10
3.44203e-08
-5.24377e-10
2.74149e-08
-3.22959e-10
2.1107e-08
-1.74803e-10
1.54448e-08
-7.47595e-11
1.03789e-08
-1.80026e-11
5.86255e-09
1.85134e-09
-8.80422e-10
7.22635e-08
-3.30851e-09
2.0341e-07
-6.91773e-09
3.15657e-07
-1.13228e-08
4.10524e-07
-1.61523e-08
4.89396e-07
-2.10717e-08
5.53543e-07
-2.57978e-08
6.04157e-07
-3.01074e-08
6.42378e-07
-3.38385e-08
6.69326e-07
-3.68884e-08
6.86108e-07
-3.92066e-08
6.93824e-07
-4.07871e-08
6.93563e-07
-4.16587e-08
6.86384e-07
-4.18756e-08
6.73314e-07
-4.15088e-08
6.55325e-07
-4.06389e-08
6.33329e-07
-3.93497e-08
6.08163e-07
-3.7724e-08
5.80588e-07
-3.58399e-08
5.51284e-07
-3.37689e-08
5.2085e-07
-3.15746e-08
4.89804e-07
-2.93123e-08
4.5859e-07
-2.70287e-08
4.27581e-07
-2.47627e-08
3.97085e-07
-2.25457e-08
3.67353e-07
-2.04025e-08
3.38581e-07
-1.8352e-08
3.10921e-07
-1.64081e-08
2.84487e-07
-1.45802e-08
2.59354e-07
-1.28744e-08
2.35574e-07
-1.12937e-08
2.13168e-07
-9.83843e-09
1.92143e-07
-8.50735e-09
1.72484e-07
-7.29754e-09
1.54167e-07
-6.20494e-09
1.37155e-07
-5.22466e-09
1.21404e-07
-4.35117e-09
1.06863e-07
-3.57858e-09
9.34764e-08
-2.90075e-09
8.11877e-08
-2.31143e-09
6.99372e-08
-1.80439e-09
5.96649e-08
-1.3735e-09
5.0311e-08
-1.01277e-09
4.18166e-08
-7.16434e-10
3.4124e-08
-4.78954e-10
2.71774e-08
-2.95063e-10
2.09231e-08
-1.59773e-10
1.53095e-08
-6.83845e-11
1.02876e-08
-1.64935e-11
5.81066e-09
1.83484e-09
-8.27445e-10
7.3091e-08
-3.1076e-09
2.0569e-07
-6.49037e-09
3.1904e-07
-1.06079e-08
4.14642e-07
-1.51072e-08
4.93895e-07
-1.96732e-08
5.58109e-07
-2.4042e-08
6.08526e-07
-2.8008e-08
6.46344e-07
-3.14249e-08
6.72743e-07
-3.42019e-08
6.88885e-07
-3.62973e-08
6.9592e-07
-3.77099e-08
6.94975e-07
-3.84696e-08
6.87144e-07
-3.86294e-08
6.73474e-07
-3.82563e-08
6.54952e-07
-3.74257e-08
6.32498e-07
-3.62151e-08
6.06952e-07
-3.47004e-08
5.79073e-07
-3.29532e-08
5.49537e-07
-3.10385e-08
5.18935e-07
-2.90142e-08
4.8778e-07
-2.69303e-08
4.56506e-07
-2.48291e-08
4.2548e-07
-2.27457e-08
3.95002e-07
-2.07086e-08
3.65315e-07
-1.87401e-08
3.36612e-07
-1.68572e-08
3.09038e-07
-1.50725e-08
2.82702e-07
-1.33945e-08
2.57676e-07
-1.18285e-08
2.34008e-07
-1.03772e-08
2.11717e-07
-9.04111e-09
1.90807e-07
-7.81884e-09
1.71262e-07
-6.70776e-09
1.53056e-07
-5.70417e-09
1.36152e-07
-4.80359e-09
1.20503e-07
-4.00098e-09
1.0606e-07
-3.29095e-09
9.27664e-08
-2.66789e-09
8.05647e-08
-2.12609e-09
6.93954e-08
-1.65986e-09
5.91987e-08
-1.26358e-09
4.99147e-08
-9.31771e-10
4.14847e-08
-6.59154e-10
3.38514e-08
-4.40656e-10
2.69589e-08
-2.71447e-10
2.07539e-08
-1.46956e-10
1.5185e-08
-6.28708e-11
1.02035e-08
-1.51485e-11
5.76294e-09
1.81969e-09
-7.76244e-10
7.38672e-08
-2.9132e-09
2.07827e-07
-6.07794e-09
3.22205e-07
-9.92078e-09
4.18484e-07
-1.41078e-08
4.98082e-07
-1.83427e-08
5.62344e-07
-2.23798e-08
6.12563e-07
-2.60301e-08
6.49994e-07
-2.9161e-08
6.75873e-07
-3.16923e-08
6.91416e-07
-3.35892e-08
6.97817e-07
-3.48541e-08
6.9624e-07
-3.55177e-08
6.87808e-07
-3.56308e-08
6.73587e-07
-3.5257e-08
6.54579e-07
-3.44663e-08
6.31707e-07
-3.33306e-08
6.05816e-07
-3.19196e-08
5.77662e-07
-3.02988e-08
5.47916e-07
-2.85278e-08
5.17164e-07
-2.66591e-08
4.85911e-07
-2.47382e-08
4.54585e-07
-2.28035e-08
4.23545e-07
-2.08869e-08
3.93085e-07
-1.9014e-08
3.63442e-07
-1.7205e-08
3.34803e-07
-1.54753e-08
3.07309e-07
-1.38363e-08
2.81063e-07
-1.22956e-08
2.56136e-07
-1.08579e-08
2.3257e-07
-9.52571e-09
2.10385e-07
-8.29928e-09
1.8958e-07
-7.17739e-09
1.7014e-07
-6.15759e-09
1.52036e-07
-5.23645e-09
1.35231e-07
-4.40984e-09
1.19677e-07
-3.67315e-09
1.05323e-07
-3.02141e-09
9.21147e-08