/*--------------------------------*- C++ -*----------------------------------*\
| =========                 |                                                 |
| \\      /  F ield         | OpenFOAM: The Open Source CFD Toolbox           |
|  \\    /   O peration     | Version:  5.x                                   |
|   \\  /    A nd           | Web:      www.OpenFOAM.org                      |
|    \\/     M anipulation  |                                                 |
\*---------------------------------------------------------------------------*/
FoamFile
{
    version     2.0;
    format      ascii;
    class       volVectorField;
    location    "8";
    object      U;
}
// * * * * * * * * * * * * * * * * * * * * * * * * * * * * * * * * * * * * * //

dimensions      [0 1 -1 0 0 0 0];

internalField   nonuniform List<vector> 
5000
(
(0.103031 -0.000137283 -2.5035e-17)
(0.103039 -0.000320711 -5.861e-17)
(0.103059 -0.000528104 -9.20969e-17)
(0.103091 -0.000747488 -8.47279e-17)
(0.103135 -0.000982954 -5.64345e-17)
(0.103192 -0.00123997 -3.53687e-17)
(0.103262 -0.00152413 -2.08499e-17)
(0.103348 -0.0018411 -8.53014e-18)
(0.103449 -0.00219672 9.4114e-18)
(0.103568 -0.00259705 4.58368e-17)
(0.103706 -0.00304837 2.47963e-17)
(0.103863 -0.00355727 1.63137e-17)
(0.104041 -0.00413056 1.02051e-17)
(0.104242 -0.00477527 5.54547e-18)
(0.104469 -0.00549842 1.39429e-18)
(0.104724 -0.00630682 -3.10056e-18)
(0.105013 -0.00720669 -9.41679e-18)
(0.10534 -0.00820316 -2.01583e-17)
(0.10571 -0.00929964 3.2107e-18)
(0.106129 -0.0104972 2.27008e-17)
(0.1066 -0.0117941 1.21816e-17)
(0.107122 -0.0131846 5.7773e-18)
(0.107692 -0.0146593 1.09286e-18)
(0.108298 -0.0162042 -3.08798e-18)
(0.108922 -0.0178009 -7.5075e-18)
(0.109539 -0.0194271 -1.30819e-17)
(0.110114 -0.0210563 -9.1957e-18)
(0.110606 -0.0226593 -7.43078e-18)
(0.110968 -0.0242044 -6.68015e-18)
(0.111146 -0.0256587 -6.5748e-18)
(0.111087 -0.0269888 -6.78153e-18)
(0.110734 -0.0281623 -7.50015e-18)
(0.110033 -0.029148 -8.51867e-18)
(0.108931 -0.0299171 -1.03124e-17)
(0.107382 -0.0304438 -1.18645e-17)
(0.105339 -0.0307055 -8.84118e-18)
(0.102765 -0.0306833 -6.58803e-18)
(0.0996236 -0.0303622 -5.13505e-18)
(0.0958826 -0.029731 -4.9942e-18)
(0.0915135 -0.0287819 -5.81355e-18)
(0.0864892 -0.0275108 -5.0147e-18)
(0.0807836 -0.0259167 -4.54045e-18)
(0.0743703 -0.0240013 -4.27051e-18)
(0.0672216 -0.0217686 -4.27884e-18)
(0.0593072 -0.0192248 -4.26513e-18)
(0.050593 -0.0163784 -3.96011e-18)
(0.0410403 -0.013241 -4.51637e-18)
(0.0306047 -0.00982043 -2.77344e-18)
(0.0192343 -0.00610306 -1.76088e-18)
(0.00686829 -0.00207678 -5.715e-19)
(0.104456 -0.000267302 7.10623e-17)
(0.104491 -0.000606138 2.07115e-16)
(0.104561 -0.000963274 5.38975e-16)
(0.104666 -0.00132102 4.40465e-16)
(0.104807 -0.00168074 2.05639e-16)
(0.10499 -0.00204517 1.14097e-16)
(0.105219 -0.00241836 7.75046e-17)
(0.105503 -0.00280521 8.46467e-17)
(0.105848 -0.00321126 1.32707e-16)
(0.106266 -0.0036426 5.80584e-17)
(0.106767 -0.00410576 1.73968e-18)
(0.107365 -0.00460741 -4.69303e-17)
(0.108072 -0.0051539 -2.90619e-17)
(0.108903 -0.00575068 -1.95946e-17)
(0.109868 -0.00640148 -1.51184e-17)
(0.110978 -0.00710755 -1.48761e-17)
(0.112234 -0.00786687 -1.54295e-17)
(0.113635 -0.00867349 -1.47004e-17)
(0.115165 -0.00951716 -1.07608e-17)
(0.116801 -0.0103833 -7.61898e-18)
(0.118506 -0.0112533 -7.41518e-18)
(0.12023 -0.0121052 -9.32791e-18)
(0.121916 -0.0129151 -1.29433e-17)
(0.123493 -0.0136577 -1.7163e-17)
(0.124888 -0.0143086 -1.94599e-17)
(0.126024 -0.0148448 -1.51956e-17)
(0.126825 -0.0152466 -9.61537e-18)
(0.12722 -0.0154984 -4.85615e-18)
(0.127144 -0.015589 -3.32594e-19)
(0.126541 -0.0155129 -5.67238e-18)
(0.125369 -0.0152695 -1.00347e-17)
(0.123593 -0.0148633 -1.4688e-17)
(0.121195 -0.0143036 -1.85102e-17)
(0.118163 -0.0136037 -1.75636e-17)
(0.114501 -0.0127803 -1.62671e-17)
(0.110218 -0.0118527 -1.57249e-17)
(0.105336 -0.0108422 -1.53135e-17)
(0.0998808 -0.00977122 -1.52215e-17)
(0.0938858 -0.0086629 -1.53294e-17)
(0.0873888 -0.00754039 -1.56512e-17)
(0.0804313 -0.00642645 -1.61466e-17)
(0.0730578 -0.00534305 -1.67709e-17)
(0.0653142 -0.00431113 -1.76612e-17)
(0.0572475 -0.00335043 -1.66793e-17)
(0.048905 -0.00247933 -1.41473e-17)
(0.0403333 -0.00171442 -1.20064e-17)
(0.0315784 -0.00107014 -1.01856e-17)
(0.0226842 -0.00056124 -6.99127e-18)
(0.0136925 -0.000210523 -4.04615e-18)
(0.0046411 -4.01524e-05 -1.31732e-18)
(0.107176 -0.000483251 2.68681e-16)
(0.107234 -0.00112557 7.04639e-16)
(0.107359 -0.0018337 4.21073e-16)
(0.107546 -0.00254997 2.73691e-16)
(0.107795 -0.00327686 1.18466e-16)
(0.108112 -0.00402184 -8.98304e-18)
(0.108503 -0.00479169 9.96933e-17)
(0.108976 -0.00559205 1.95506e-16)
(0.109542 -0.0064275 1.43952e-16)
(0.110212 -0.00730126 9.79065e-17)
(0.110996 -0.00821486 6.98412e-17)
(0.111903 -0.00916752 5.84989e-17)
(0.112939 -0.0101556 1.71181e-17)
(0.114101 -0.0111718 -1.0418e-17)
(0.115379 -0.0122049 -2.50766e-17)
(0.116753 -0.0132396 -4.77061e-18)
(0.118189 -0.0142566 1.51747e-17)
(0.119642 -0.015233 3.41922e-17)
(0.121055 -0.0161439 1.55255e-17)
(0.122361 -0.0169632 2.68633e-18)
(0.123485 -0.0176655 -8.44052e-18)
(0.124352 -0.0182273 -1.95318e-17)
(0.124885 -0.018629 -9.1136e-18)
(0.125015 -0.0188556 -1.84125e-18)
(0.124679 -0.0188978 1.16042e-18)
(0.123827 -0.0187521 9.7924e-19)
(0.122425 -0.0184214 -7.78465e-18)
(0.12045 -0.0179139 -1.52741e-17)
(0.117896 -0.0172432 -2.19415e-17)
(0.114772 -0.0164269 -2.82536e-17)
(0.111099 -0.0154859 -2.62208e-17)
(0.106911 -0.0144431 -2.46931e-17)
(0.102251 -0.0133229 -2.32807e-17)
(0.0971699 -0.0121498 -2.1926e-17)
(0.0917241 -0.0109479 -2.03249e-17)
(0.0859733 -0.00974027 -1.90178e-17)
(0.0799785 -0.0085481 -1.75887e-17)
(0.0738004 -0.00739064 -2.02976e-17)
(0.067498 -0.0062848 -2.26462e-17)
(0.0611272 -0.00524501 -2.52518e-17)
(0.0547398 -0.00428323 -2.55284e-17)
(0.0483828 -0.00340892 -2.39128e-17)
(0.042098 -0.00262918 -2.26263e-17)
(0.0359215 -0.00194891 -2.05895e-17)
(0.029884 -0.00137096 -1.90958e-17)
(0.0240105 -0.000896206 -1.48768e-17)
(0.0183206 -0.000523678 -1.10516e-17)
(0.0128291 -0.000252059 -6.8617e-18)
(0.00754647 -8.24614e-05 -4.23221e-18)
(0.00247924 -1.22679e-05 -1.29268e-18)
(0.111335 -0.000548151 2.83214e-16)
(0.111439 -0.00125035 6.29363e-16)
(0.111662 -0.00199551 3.80313e-16)
(0.111995 -0.00273655 2.45526e-16)
(0.112436 -0.00347382 1.60527e-16)
(0.112991 -0.00421063 1.18104e-16)
(0.113665 -0.00495119 1.30318e-16)
(0.114468 -0.0056994 1.42318e-16)
(0.115407 -0.00645805 1.24515e-16)
(0.116488 -0.007228 9.44556e-17)
(0.117713 -0.00800754 5.87713e-17)
(0.119075 -0.00879171 1.42341e-17)
(0.120558 -0.00957194 1.56335e-17)
(0.122136 -0.0103359 6.02267e-18)
(0.123768 -0.0110679 -5.88592e-18)
(0.1254 -0.0117496 -1.34627e-17)
(0.126968 -0.0123612 -1.92281e-17)
(0.1284 -0.0128827 -2.41852e-17)
(0.129615 -0.0132959 -3.08619e-17)
(0.130536 -0.0135848 -3.6939e-17)
(0.131087 -0.0137379 -4.24122e-17)
(0.1312 -0.0137483 -4.84005e-17)
(0.130819 -0.0136143 -2.95452e-17)
(0.129902 -0.0133397 -1.54178e-17)
(0.128423 -0.0129327 -5.33173e-18)
(0.126371 -0.0124062 1.15721e-18)
(0.123753 -0.0117761 5.08163e-18)
(0.120587 -0.0110609 7.99223e-18)
(0.116907 -0.0102801 1.05544e-17)
(0.112753 -0.00945389 1.35011e-17)
(0.108174 -0.00860185 1.79491e-17)
(0.103227 -0.00774239 1.58582e-17)
(0.0979659 -0.00689221 1.5678e-17)
(0.0924495 -0.00606591 1.59559e-17)
(0.0867331 -0.00527573 1.66999e-17)
(0.0808699 -0.00453152 1.36484e-17)
(0.0749089 -0.00384072 1.1126e-17)
(0.0688948 -0.00320849 8.936e-18)
(0.0628672 -0.00263794 7.19605e-18)
(0.0568605 -0.00213031 5.86619e-18)
(0.0509043 -0.00168531 4.86279e-18)
(0.0450231 -0.00130131 4.15338e-18)
(0.0392374 -0.000975696 3.64622e-18)
(0.0335633 -0.000705058 3.27893e-18)
(0.0280137 -0.000485469 2.99889e-18)
(0.0225983 -0.000312621 3.01262e-18)
(0.0173242 -0.000181933 2.97876e-18)
(0.0121964 -8.90141e-05 2.02579e-18)
(0.00721798 -3.09098e-05 1.04961e-18)
(0.00239074 -5.33014e-06 3.48425e-19)
(0.115861 -0.000624192 3.80833e-16)
(0.115994 -0.00144111 8.3635e-16)
(0.116274 -0.00232301 4.9172e-16)
(0.116686 -0.00319923 2.99234e-16)
(0.117229 -0.00406836 1.82591e-16)
(0.117904 -0.00493401 1.17274e-16)
(0.118716 -0.00579888 9.7651e-17)
(0.119665 -0.00666359 8.38812e-17)
(0.120751 -0.0075261 5.91283e-17)
(0.121965 -0.00838118 2.29212e-17)
(0.123289 -0.00922019 -1.917e-17)
(0.124693 -0.0100311 -6.5051e-17)
(0.126137 -0.0107988 -5.31287e-17)
(0.127565 -0.0115062 -5.57594e-17)
(0.128913 -0.0121347 -1.74215e-17)
(0.130107 -0.0126662 1.48267e-17)
(0.131069 -0.0130844 3.96005e-17)
(0.131721 -0.0133757 4.22463e-17)
(0.131992 -0.0135306 4.75875e-17)
(0.131817 -0.0135444 2.63196e-17)
(0.131148 -0.0134175 1.92634e-17)
(0.129947 -0.0131549 -7.87206e-19)
(0.128198 -0.0127664 -1.21643e-17)
(0.125898 -0.0122653 -3.21169e-17)
(0.12306 -0.0116678 -5.02046e-17)
(0.119712 -0.0109918 -4.96972e-17)
(0.115893 -0.0102562 -4.00648e-17)
(0.11165 -0.00947965 -3.23161e-17)
(0.107038 -0.00868014 -2.66352e-17)
(0.102114 -0.00787418 -2.25894e-17)
(0.0969354 -0.00707647 -1.99103e-17)
(0.0915606 -0.00629962 -1.86667e-17)
(0.0860443 -0.00555402 -1.83953e-17)
(0.0804374 -0.00484788 -1.90338e-17)
(0.0747863 -0.00418735 -2.04061e-17)
(0.0691325 -0.00357664 -2.25886e-17)
(0.0635118 -0.00301831 -2.47059e-17)
(0.0579552 -0.00251346 -2.41876e-17)
(0.0524885 -0.00206201 -2.36963e-17)
(0.0471327 -0.00166292 -2.39802e-17)
(0.0419048 -0.00131442 -2.01798e-17)
(0.0368179 -0.00101419 -1.70599e-17)
(0.0318817 -0.000759532 -1.43396e-17)
(0.0271031 -0.000547509 -1.19152e-17)
(0.0224866 -0.000375063 -9.70813e-18)
(0.0180344 -0.000239057 -7.67527e-18)
(0.0137473 -0.000136329 -5.7852e-18)
(0.00962457 -6.40364e-05 -4.01347e-18)
(0.00566422 -2.03208e-05 -2.34409e-18)
(0.00186353 -2.8542e-06 -7.65332e-19)
(0.120906 -0.000616585 1.77754e-16)
(0.12107 -0.00141145 2.76966e-16)
(0.121417 -0.00225515 2.41653e-16)
(0.121927 -0.00308502 2.00814e-16)
(0.122595 -0.00389766 2.15908e-16)
(0.123417 -0.00469312 2.75691e-16)
(0.12439 -0.00547096 1.6156e-16)
(0.125504 -0.00622885 1.00149e-16)
(0.126742 -0.00696191 6.40072e-17)
(0.128079 -0.00766243 5.03621e-17)
(0.129476 -0.00832005 7.08254e-17)
(0.130882 -0.00892222 6.96358e-18)
(0.132236 -0.00945516 -5.35327e-18)
(0.133466 -0.00990489 1.45467e-17)
(0.134496 -0.0102585 1.3307e-17)
(0.135249 -0.0105055 1.63046e-18)
(0.13565 -0.0106384 -1.37384e-18)
(0.135635 -0.010654 -2.81509e-19)
(0.13515 -0.0105529 1.98425e-17)
(0.134157 -0.0103402 3.61698e-17)
(0.132632 -0.0100248 4.66646e-17)
(0.13057 -0.00961847 5.39602e-17)
(0.127982 -0.00913542 4.41971e-17)
(0.12489 -0.00859122 3.77313e-17)
(0.121332 -0.00800192 3.80678e-17)
(0.117352 -0.0073833 2.58394e-17)
(0.113001 -0.00675022 1.1337e-17)
(0.108334 -0.00611609 1.30846e-18)
(0.103406 -0.00549259 -5.84392e-18)
(0.0982721 -0.00488945 -1.11181e-17)
(0.0929846 -0.00431444 -1.52648e-17)
(0.0875919 -0.00377342 -1.87213e-17)
(0.0821379 -0.00327049 -2.16578e-17)
(0.0766617 -0.00280815 -2.42107e-17)
(0.0711974 -0.0023876 -2.64127e-17)
(0.0657741 -0.00200888 -2.83207e-17)
(0.0604162 -0.00167117 -3.09453e-17)
(0.0551438 -0.00137294 -2.87543e-17)
(0.0499732 -0.00111218 -2.75057e-17)
(0.0449171 -0.000886531 -2.62499e-17)
(0.0399853 -0.000693434 -2.50028e-17)
(0.035185 -0.00053023 -2.37726e-17)
(0.0305214 -0.000394248 -2.28284e-17)
(0.0259975 -0.00028287 -2.00702e-17)
(0.0216153 -0.00019358 -1.63445e-17)
(0.0173752 -0.000123974 -1.27818e-17)
(0.0132767 -7.17575e-05 -9.58359e-18)
(0.00931852 -3.48831e-05 -6.49678e-18)
(0.00549885 -1.19911e-05 -3.54506e-18)
(0.00181531 -2.03026e-06 -9.20224e-19)
(0.125882 -0.000612764 -3.92022e-16)
(0.126065 -0.00140985 5.93123e-16)
(0.126448 -0.00226117 4.80379e-16)
(0.127006 -0.00309604 5.20415e-16)
(0.127728 -0.0039091 3.37379e-16)
(0.128603 -0.00469889 2.4236e-16)
(0.129615 -0.00546259 1.70585e-16)
(0.13074 -0.00619493 1.46482e-16)
(0.131946 -0.00688808 1.53074e-16)
(0.133188 -0.0075319 1.83876e-16)
(0.13441 -0.00811459 2.39052e-16)
(0.135546 -0.00862361 1.80096e-16)
(0.136522 -0.00904682 1.52778e-16)
(0.137262 -0.00937359 1.45193e-16)
(0.137693 -0.00959584 1.44259e-16)
(0.137744 -0.00970882 1.20609e-16)
(0.137359 -0.00971157 6.72643e-17)
(0.136493 -0.00960698 2.87341e-17)
(0.135118 -0.0094016 -5.05646e-19)
(0.133222 -0.00910508 -2.81095e-17)
(0.130808 -0.00872947 -2.72885e-17)
(0.127897 -0.00828843 -1.11832e-17)
(0.12452 -0.00779638 1.1919e-18)
(0.120718 -0.00726775 9.12367e-18)
(0.116539 -0.00671637 1.36942e-17)
(0.112038 -0.00615491 1.5186e-17)
(0.107269 -0.00559461 1.4928e-17)
(0.102286 -0.005045 1.38087e-17)
(0.0971406 -0.00451391 1.24487e-17)
(0.0918826 -0.00400746 5.28011e-18)
(0.0865565 -0.00353017 1.86384e-18)
(0.0812023 -0.00308513 7.20255e-19)
(0.0758549 -0.00267421 2.1466e-19)
(0.0705446 -0.00229822 -2.71305e-19)
(0.065297 -0.00195715 -3.74145e-18)
(0.0601332 -0.00165032 -1.1693e-17)
(0.0550707 -0.00137654 -1.57014e-17)
(0.0501231 -0.00113428 -1.38989e-17)
(0.0453012 -0.000921765 -1.27937e-17)
(0.040613 -0.000737061 -1.16446e-17)
(0.0360643 -0.000578177 -1.04793e-17)
(0.0316589 -0.000443105 -9.30071e-18)
(0.0273989 -0.00032987 -8.12542e-18)
(0.0232852 -0.00023656 -6.9979e-18)
(0.0193174 -0.000161349 -5.92236e-18)
(0.0154945 -0.000102492 -3.3305e-18)
(0.0118144 -5.83257e-05 -2.44655e-18)
(0.00827473 -2.73952e-05 -1.63322e-18)
(0.00487247 -8.72858e-06 -9.38859e-19)
(0.00160433 -1.2429e-06 -2.91832e-19)
(0.130852 -0.000572895 7.07605e-17)
(0.13105 -0.00131233 2.75781e-16)
(0.131464 -0.00209439 3.37531e-16)
(0.132063 -0.00285543 3.53878e-16)
(0.132827 -0.0035885 3.18904e-16)
(0.133734 -0.00428953 3.02896e-16)
(0.134757 -0.00495345 3.24814e-16)
(0.135857 -0.00557341 2.12083e-16)
(0.136987 -0.00614092 1.50016e-16)
(0.138088 -0.0066463 1.07436e-16)
(0.139092 -0.00707957 6.26651e-17)
(0.139925 -0.00743141 -8.47024e-18)
(0.140514 -0.00769409 5.52553e-18)
(0.140784 -0.00786239 -9.24257e-18)
(0.140672 -0.00793411 -4.95483e-18)
(0.140124 -0.00791037 1.19204e-17)
(0.1391 -0.0077956 9.02044e-18)
(0.137577 -0.00759716 -1.39446e-18)
(0.135549 -0.00732483 7.39758e-18)
(0.133023 -0.00699012 3.91382e-17)
(0.130022 -0.00660548 4.56008e-17)
(0.126579 -0.00618367 4.16267e-17)
(0.122737 -0.00573707 1.72699e-17)
(0.118544 -0.0052772 -3.69278e-18)
(0.114053 -0.00481436 -2.30795e-17)
(0.109314 -0.00435739 -2.73128e-17)
(0.104381 -0.00391361 -3.44417e-17)
(0.099302 -0.00348879 -3.58499e-17)
(0.0941227 -0.00308723 -3.22652e-17)
(0.0888843 -0.00271193 -2.28092e-17)
(0.0836236 -0.00236475 -1.46614e-17)
(0.0783726 -0.00204654 -1.42712e-17)
(0.0731588 -0.00175742 -1.41136e-17)
(0.0680052 -0.00149684 -1.30355e-17)
(0.062931 -0.00126381 -1.73062e-17)
(0.057952 -0.001057 -1.54474e-17)
(0.0530804 -0.000874846 -1.41024e-17)
(0.0483261 -0.000715648 -1.36845e-17)
(0.0436962 -0.000577645 -9.21197e-18)
(0.0391961 -0.000459065 -5.72017e-18)
(0.0348292 -0.00035817 -2.52589e-18)
(0.0305977 -0.000273279 3.25339e-19)
(0.0265025 -0.000202799 3.73859e-18)
(0.0225435 -0.00014523 5.29767e-18)
(0.0187198 -9.91782e-05 6.38702e-18)
(0.01503 -6.3345e-05 7.33883e-18)
(0.0114721 -3.65174e-05 7.06157e-18)
(0.00804352 -1.76315e-05 5.37729e-18)
(0.00474164 -5.98021e-06 3.73143e-18)
(0.00156346 -9.85626e-07 8.70983e-19)
(0.135559 -0.000540688 1.22685e-16)
(0.135763 -0.00124163 2.73106e-16)
(0.136185 -0.00198415 3.61722e-16)
(0.136788 -0.0027031 3.89843e-16)
(0.137542 -0.0033901 3.712e-16)
(0.138414 -0.00403989 3.34619e-16)
(0.139364 -0.00464622 2.91411e-16)
(0.140341 -0.00520147 2.3084e-16)
(0.141284 -0.00569703 1.79994e-16)
(0.142126 -0.00612408 1.43053e-16)
(0.142793 -0.00647447 1.21132e-16)
(0.143211 -0.00674157 1.24829e-16)
(0.143311 -0.00692105 7.16246e-17)
(0.143029 -0.00701138 4.71369e-17)
(0.142316 -0.007014 3.65383e-17)
(0.141135 -0.00693329 3.13218e-17)
(0.139466 -0.00677622 2.64965e-17)
(0.137305 -0.00655184 2.02678e-17)
(0.134663 -0.00627059 1.22752e-17)
(0.131563 -0.00594373 -1.33763e-18)
(0.128041 -0.00558263 9.31919e-18)
(0.124139 -0.00519826 1.02671e-17)
(0.119905 -0.00480076 7.32524e-18)
(0.115389 -0.00439916 2.9743e-18)
(0.110644 -0.0040012 -9.06604e-19)
(0.105719 -0.00361324 -3.21109e-18)
(0.100661 -0.00324033 -4.00945e-18)
(0.0955143 -0.00288626 -3.37994e-18)
(0.0903178 -0.00255369 -1.56176e-18)
(0.0851066 -0.00224431 1.26779e-18)
(0.0799114 -0.00195902 2.68791e-18)
(0.0747583 -0.00169802 2.49245e-18)
(0.0696692 -0.00146102 8.91075e-19)
(0.0646626 -0.00124732 -2.2737e-19)
(0.0597533 -0.00105594 -1.0416e-18)
(0.0549533 -0.000885687 -1.57062e-18)
(0.0502717 -0.000735271 -1.86423e-18)
(0.0457157 -0.000603322 -1.97443e-18)
(0.0412904 -0.000488451 -1.95133e-18)
(0.036999 -0.000389283 -1.87501e-18)
(0.0328437 -0.000304483 -1.82532e-18)
(0.0288253 -0.000232768 -1.90554e-18)
(0.0249438 -0.000172923 -1.93159e-18)
(0.0211981 -0.000123807 -4.92382e-19)
(0.0175869 -8.43545e-05 -3.00017e-19)
(0.014108 -5.35688e-05 -3.30476e-19)
(0.0107591 -3.05154e-05 -2.3395e-19)
(0.00753715 -1.43821e-05 -1.97495e-19)
(0.00443929 -4.62481e-06 -3.31028e-19)
(0.00146222 -6.74793e-07 -4.44892e-19)
(0.140077 -0.000496638 2.64959e-18)
(0.140281 -0.00113726 1.68169e-17)
(0.140701 -0.00181077 7.14834e-17)
(0.141291 -0.00245777 1.05692e-16)
(0.142012 -0.00306904 1.49417e-16)
(0.142822 -0.00363809 1.87151e-16)
(0.143666 -0.00415807 1.95434e-16)
(0.144486 -0.00462156 1.79822e-16)
(0.145213 -0.00502107 1.577e-16)
(0.145774 -0.0053498 1.43531e-16)
(0.146097 -0.00560234 1.47387e-16)
(0.146112 -0.00577534 1.62322e-16)
(0.145757 -0.00586796 9.72066e-17)
(0.144984 -0.00588201 5.11312e-17)
(0.143757 -0.00582186 1.80359e-17)
(0.142056 -0.00569411 -5.67844e-18)
(0.139876 -0.00550714 -2.4773e-17)
(0.137228 -0.00527049 -4.56408e-17)
(0.134135 -0.00499428 -3.46951e-17)
(0.130631 -0.00468865 -2.85482e-17)
(0.126756 -0.0043633 -2.20438e-17)
(0.122558 -0.00402711 -1.56685e-17)
(0.118086 -0.0036879 -9.98691e-18)
(0.113388 -0.00335235 -5.59575e-18)
(0.108512 -0.00302585 -2.42121e-18)
(0.103506 -0.00271267 -4.87706e-19)
(0.0984093 -0.00241594 5.39226e-19)
(0.0932618 -0.00213783 1.0649e-18)
(0.0880968 -0.00187967 1.27325e-18)
(0.0829439 -0.0016421 1.2706e-18)
(0.0778285 -0.00142518 1.03957e-18)
(0.0727722 -0.00122858 6.62686e-19)
(0.0677928 -0.00105159 2.19938e-19)
(0.062905 -0.000893298 -2.04015e-19)
(0.0581205 -0.000752637 -5.70615e-19)
(0.0534488 -0.000628436 -8.56686e-19)
(0.0488968 -0.000519483 -1.075e-18)
(0.0444699 -0.000424558 -1.21273e-18)
(0.0401715 -0.000342462 -1.29919e-18)
(0.0360041 -0.000272036 -1.34506e-18)
(0.0319688 -0.000212178 -1.37271e-18)
(0.0280657 -0.000161846 -1.40299e-18)
(0.0242944 -0.000120069 -1.45206e-18)
(0.0206535 -8.59453e-05 -1.53232e-18)
(0.0171415 -5.8645e-05 -1.65655e-18)
(0.0137561 -3.74015e-05 -1.8233e-18)
(0.0104949 -2.15025e-05 -2.02422e-18)
(0.00735519 -1.03275e-05 -1.72899e-18)
(0.00433403 -3.46411e-06 -1.31284e-18)
(0.00142835 -5.57601e-07 -4.27908e-19)
(0.144309 -0.000460951 2.27391e-16)
(0.144505 -0.00105664 5.89733e-16)
(0.144904 -0.00168204 4.91107e-16)
(0.145452 -0.00227877 6.12449e-16)
(0.146104 -0.00283691 5.06493e-16)
(0.146804 -0.00334972 3.15377e-16)
(0.147493 -0.00381047 2.2837e-16)
(0.148102 -0.0042124 1.9773e-16)
(0.148559 -0.00454931 2.02947e-16)
(0.148792 -0.00481621 2.37654e-16)
(0.148732 -0.00500992 1.80326e-16)
(0.148318 -0.00512946 1.45853e-16)
(0.1475 -0.00517624 1.14907e-16)
(0.14624 -0.00515401 9.17507e-17)
(0.14452 -0.00506854 7.82156e-17)
(0.142332 -0.00492725 5.12862e-17)
(0.139686 -0.00473863 3.5167e-17)
(0.136604 -0.00451174 2.80631e-17)
(0.133116 -0.00425572 2.87069e-17)
(0.129264 -0.00397932 3.30994e-17)
(0.125092 -0.00369059 4.17948e-17)
(0.120647 -0.00339668 2.53455e-17)
(0.115978 -0.0031037 -7.38089e-18)
(0.111131 -0.00281667 -2.32314e-17)
(0.106152 -0.00253957 -4.08335e-17)
(0.101081 -0.0022754 -4.8097e-17)
(0.0959565 -0.00202629 -3.71252e-17)
(0.0908118 -0.00179363 -3.03563e-17)
(0.0856764 -0.00157818 -2.53908e-17)
(0.0805755 -0.0013802 -1.93409e-17)
(0.0755306 -0.00119954 -1.44421e-17)
(0.0705598 -0.00103577 -7.91584e-18)
(0.065678 -0.000888217 -2.16784e-18)
(0.0608973 -0.000756064 3.42672e-18)
(0.0562272 -0.000638399 8.91638e-18)
(0.0516752 -0.000534254 1.4337e-17)
(0.0472467 -0.000442641 1.9709e-17)
(0.0429458 -0.000362578 2.5027e-17)
(0.038775 -0.000293105 3.00127e-17)
(0.0347356 -0.000233299 3.59328e-17)
(0.0308282 -0.000182284 3.7366e-17)
(0.0270525 -0.000139234 3.67404e-17)
(0.0234074 -0.000103376 3.25076e-17)
(0.0198913 -7.39923e-05 2.94864e-17)
(0.0165024 -5.04195e-05 2.38021e-17)
(0.0132381 -3.20416e-05 1.90545e-17)
(0.0100959 -1.82845e-05 1.46317e-17)
(0.00707293 -8.65034e-06 1.02507e-17)
(0.00416614 -2.80625e-06 6.24104e-18)
(0.00137239 -4.18445e-07 1.59733e-18)
(0.148324 -0.00042285 1.74575e-16)
(0.148506 -0.000967288 3.54672e-16)
(0.148871 -0.00153497 3.86845e-16)
(0.149361 -0.00207201 3.57148e-16)
(0.149921 -0.00256836 4.09135e-16)
(0.15049 -0.00301715 3.89832e-16)
(0.151 -0.0034121 3.59291e-16)
(0.151381 -0.00374753 3.20851e-16)
(0.151559 -0.00401886 2.76975e-16)
(0.151466 -0.00422311 2.36772e-16)
(0.151039 -0.00435924 1.92326e-16)
(0.150227 -0.00442837 1.52928e-16)
(0.148991 -0.00443373 1.19416e-16)
(0.147308 -0.00438043 9.17241e-17)
(0.145168 -0.00427509 6.85163e-17)
(0.14258 -0.00412534 4.7047e-17)
(0.13956 -0.00393939 2.54433e-17)
(0.136138 -0.00372551 3.42954e-18)
(0.132351 -0.00349167 -2.0268e-17)
(0.128243 -0.00324525 -4.68824e-17)
(0.123859 -0.00299277 -7.49256e-17)
(0.119245 -0.00273986 -9.2853e-17)
(0.114448 -0.00249114 -8.97158e-17)
(0.109511 -0.00225031 -9.1263e-17)
(0.104476 -0.00202015 -7.69662e-17)
(0.0993795 -0.00180269 -6.49138e-17)
(0.0942552 -0.00159924 -5.38987e-17)
(0.0891327 -0.00141057 -4.37068e-17)
(0.0840374 -0.00123697 -3.42739e-17)
(0.0789913 -0.00107836 -2.54948e-17)
(0.0740128 -0.000934397 -1.72233e-17)
(0.0691173 -0.000804527 -9.45516e-18)
(0.0643174 -0.00068805 -2.11168e-18)
(0.059623 -0.000584176 4.80724e-18)
(0.0550421 -0.000492063 1.00173e-17)
(0.0505807 -0.000410848 1.3303e-17)
(0.0462432 -0.000339667 1.51483e-17)
(0.0420326 -0.000277679 1.69367e-17)
(0.0379507 -0.000224071 1.80831e-17)
(0.0339984 -0.000178072 1.67153e-17)
(0.0301757 -0.000138955 1.48389e-17)
(0.0264819 -0.00010604 1.30424e-17)
(0.0229158 -7.86966e-05 1.13122e-17)
(0.0194757 -5.63422e-05 9.64274e-18)
(0.0161594 -3.84419e-05 8.03489e-18)
(0.0129646 -2.45023e-05 6.49239e-18)
(0.0098887 -1.40653e-05 5.0196e-18)
(0.00692875 -6.73306e-06 3.62461e-18)
(0.00408183 -2.24156e-06 2.15789e-18)
(0.00134488 -3.54847e-07 1.14051e-18)
(0.15209 -0.000391252 4.33529e-17)
(0.152251 -0.000895183 9.15969e-17)
(0.152566 -0.00141895 1.27843e-16)
(0.152976 -0.00191058 7.57557e-17)
(0.153419 -0.00236002 1.81955e-16)
(0.153828 -0.00276073 1.60888e-16)
(0.154133 -0.00310721 6.59087e-17)
(0.154261 -0.00339495 7.06339e-17)
(0.154142 -0.00362083 1.33032e-16)
(0.153712 -0.00378345 1.60492e-16)
(0.152918 -0.00388337 1.60195e-16)
(0.151718 -0.00392307 1.45348e-16)
(0.150084 -0.00390681 1.23864e-16)
(0.148006 -0.00384031 9.84967e-17)
(0.145485 -0.0037303 6.69534e-17)
(0.142536 -0.00358416 2.4715e-17)
(0.139186 -0.00340942 3.69975e-18)
(0.135469 -0.0032134 -1.47045e-17)
(0.131426 -0.00300295 -1.62322e-17)
(0.1271 -0.00278423 -1.72925e-17)
(0.122537 -0.00256257 -1.45165e-17)
(0.117782 -0.00234245 -5.74016e-18)
(0.11288 -0.00212747 -1.02e-17)
(0.107869 -0.00192043 -7.92684e-18)
(0.102789 -0.00172342 -1.59744e-17)
(0.097673 -0.00153788 -1.99692e-17)
(0.0925506 -0.00136469 -2.14226e-17)
(0.0874483 -0.00120434 -2.14598e-17)
(0.0823886 -0.00105694 -2.05884e-17)
(0.0773907 -0.000922304 -1.91853e-17)
(0.0724706 -0.000800083 -1.75105e-17)
(0.0676416 -0.000689757 -1.57624e-17)
(0.0629144 -0.00059071 -1.41085e-17)
(0.0582976 -0.000502265 -1.26686e-17)
(0.0537977 -0.000423709 -1.15372e-17)
(0.0494197 -0.00035432 -1.08173e-17)
(0.045167 -0.000293383 -1.06203e-17)
(0.0410421 -0.000240201 -5.74268e-18)
(0.037046 -0.000194106 -5.48305e-18)
(0.0331793 -0.000154461 -4.91611e-18)
(0.0294414 -0.000120668 -4.65735e-18)
(0.0258315 -9.21683e-05 -4.53049e-18)
(0.022348 -6.84397e-05 -4.44338e-18)
(0.0189891 -4.90012e-05 -4.99064e-18)
(0.0157525 -3.34089e-05 -2.69747e-18)
(0.0126357 -2.12519e-05 -1.08674e-18)
(0.00963597 -1.21478e-05 -8.71299e-19)
(0.00675042 -5.76497e-06 -6.30507e-19)
(0.00397604 -1.88271e-06 -3.77659e-19)
(0.00130973 -2.85171e-07 -1.24756e-19)
(0.155658 -0.000360076 1.57703e-16)
(0.155791 -0.000822502 3.88185e-16)
(0.156046 -0.00130009 1.25114e-16)
(0.156361 -0.00174453 -4.23268e-17)
(0.156671 -0.00214605 6.03279e-17)
(0.156906 -0.00249856 1.23467e-16)
(0.156994 -0.0027974 1.4124e-16)
(0.156865 -0.00303926 1.42723e-16)
(0.156452 -0.00322242 1.4937e-16)
(0.155699 -0.00334691 1.44739e-16)
(0.15456 -0.00341457 1.25017e-16)
(0.153005 -0.00342893 1.0444e-16)
(0.151017 -0.0033949 8.24208e-17)
(0.148593 -0.00331849 5.90845e-17)
(0.145745 -0.00320632 3.51258e-17)
(0.142494 -0.0030653 1.2398e-17)
(0.138871 -0.00290222 -4.31556e-18)
(0.134916 -0.00272349 -1.48419e-17)
(0.130668 -0.00253494 -2.00057e-17)
(0.126174 -0.00234167 -2.1464e-17)
(0.121476 -0.002148 -2.03263e-17)
(0.116618 -0.00195745 -1.73827e-17)
(0.111641 -0.00177282 -1.42411e-17)
(0.106583 -0.00159621 -1.11065e-17)
(0.101477 -0.00142911 -8.43907e-18)
(0.0963549 -0.00127252 -5.61016e-18)
(0.0912433 -0.00112701 -2.38667e-18)
(0.0861656 -0.000992788 1.39015e-18)
(0.0811418 -0.000869815 5.79419e-18)
(0.0761889 -0.00075784 1.08978e-17)
(0.071321 -0.000656462 1.48408e-17)
(0.0665496 -0.000565175 1.70977e-17)
(0.0618839 -0.000483404 1.82491e-17)
(0.0573313 -0.000410538 2.00138e-17)
(0.0528974 -0.000345944 2.26779e-17)
(0.0485863 -0.000288993 2.11165e-17)
(0.0444007 -0.000239064 2.03587e-17)
(0.0403424 -0.00019556 1.98516e-17)
(0.0364122 -0.000157912 1.94435e-17)
(0.0326101 -0.000125581 1.89447e-17)
(0.0289355 -9.80599e-05 1.66641e-17)
(0.0253871 -7.4879e-05 1.44037e-17)
(0.0219634 -5.56013e-05 1.22855e-17)
(0.0186623 -3.98243e-05 1.02989e-17)
(0.0154816 -2.71782e-05 8.43908e-18)
(0.0124185 -1.73213e-05 6.69361e-18)
(0.00947056 -9.93637e-06 5.05196e-18)
(0.00663471 -4.74794e-06 3.50638e-18)
(0.003908 -1.57375e-06 2.04822e-18)
(0.00128737 -2.46621e-07 6.68751e-19)
(0.159017 -0.000333228 5.72822e-17)
(0.159117 -0.000760988 9.50849e-17)
(0.159301 -0.00120104 2.09982e-17)
(0.159506 -0.00160733 -4.96369e-17)
(0.159667 -0.00197043 1.45599e-16)
(0.159712 -0.0022849 7.03999e-17)
(0.159572 -0.00254697 -3.85115e-18)
(0.159177 -0.00275441 6.50243e-17)
(0.158469 -0.00290663 8.96827e-17)
(0.157399 -0.00300474 8.62011e-17)
(0.155931 -0.00305146 1.57866e-16)
(0.154042 -0.00305088 1.35798e-16)
(0.151725 -0.00300822 1.13665e-16)
(0.148986 -0.00292939 9.44687e-17)
(0.145843 -0.00282069 8.01832e-17)
(0.142324 -0.00268843 7.1492e-17)
(0.138463 -0.00253864 6.36657e-17)
(0.134299 -0.00237691 5.31121e-17)
(0.129876 -0.00220818 4.38334e-17)
(0.125237 -0.0020367 3.9601e-17)
(0.120425 -0.00186603 3.72748e-17)
(0.11548 -0.00169902 2.05538e-17)
(0.110441 -0.00153787 5.99862e-18)
(0.105342 -0.00138422 -4.56617e-18)
(0.100216 -0.00123921 -7.64368e-19)
(0.0950898 -0.00110356 4.503e-18)
(0.0899886 -0.000977656 9.60244e-18)
(0.0849331 -0.000861614 1.46459e-17)
(0.0799414 -0.000755332 1.95518e-17)
(0.0750285 -0.000658554 2.42482e-17)
(0.0702069 -0.000570907 2.82561e-17)
(0.0654868 -0.000491939 3.42963e-17)
(0.0608763 -0.000421148 3.39796e-17)
(0.0563817 -0.000358006 3.21618e-17)
(0.0520077 -0.00030197 2.98887e-17)
(0.0477578 -0.000252503 2.7872e-17)
(0.0436342 -0.000209079 2.76319e-17)
(0.0396381 -0.000171192 2.70724e-17)
(0.03577 -0.000138357 2.89274e-17)
(0.0320295 -0.000110118 2.70087e-17)
(0.0284158 -8.60471e-05 2.27911e-17)
(0.0249275 -6.57432e-05 1.92404e-17)
(0.0215628 -4.88356e-05 1.58539e-17)
(0.0183195 -3.49813e-05 1.26127e-17)
(0.0151952 -2.38648e-05 9.49503e-18)
(0.0121874 -1.51937e-05 6.4668e-18)
(0.00929323 -8.69609e-06 3.47955e-18)
(0.00650976 -4.13584e-06 2.22294e-18)
(0.00383399 -1.35661e-06 8.91157e-19)
(0.00126282 -2.07543e-07 1.06892e-20)
(0.162199 -0.000307397 4.09727e-17)
(0.162262 -0.00070109 7.77225e-17)
(0.162366 -0.00110384 7.83188e-17)
(0.162452 -0.00147271 7.55417e-17)
(0.162454 -0.00179883 9.70822e-17)
(0.162303 -0.00207733 7.85619e-17)
(0.16193 -0.00230529 5.52379e-17)
(0.161275 -0.00248145 5.35034e-17)
(0.160282 -0.00260618 5.55243e-17)
(0.158912 -0.00268143 6.1203e-17)
(0.157137 -0.00271055 7.72195e-17)
(0.154943 -0.00269799 8.10642e-17)
(0.152331 -0.00264904 7.69402e-17)
(0.149314 -0.00256942 6.86845e-17)
(0.145915 -0.002465 5.8668e-17)
(0.142165 -0.0023415 4.81259e-17)
(0.138101 -0.00220425 3.75014e-17)
(0.133764 -0.00205809 2.68604e-17)
(0.129196 -0.00190722 1.76631e-17)
(0.124439 -0.0017552 1.28454e-17)
(0.119535 -0.00160492 2.01706e-17)
(0.114522 -0.0014587 3.09112e-17)
(0.109435 -0.00131827 2.27902e-17)
(0.104308 -0.00118492 1.77551e-17)
(0.0991696 -0.00105948 1.50041e-17)
(0.0940448 -0.000942468 1.37756e-17)
(0.0889563 -0.000834129 1.35701e-17)
(0.0839231 -0.000734479 1.39023e-17)
(0.0789614 -0.000643373 1.4427e-17)
(0.0740848 -0.00056054 1.49254e-17)
(0.0693044 -0.000485623 1.52631e-17)
(0.0646292 -0.000418205 1.53597e-17)
(0.0600664 -0.000357831 1.52013e-17)
(0.0556214 -0.000304031 1.47756e-17)
(0.0512982 -0.000256328 1.41792e-17)
(0.0470998 -0.00021425 1.34539e-17)
(0.0430279 -0.00017734 1.26275e-17)
(0.0390833 -0.000145158 1.17378e-17)
(0.0352662 -0.000117285 1.07787e-17)
(0.031576 -9.33286e-05 9.76747e-18)
(0.0280116 -7.29188e-05 8.7226e-18)
(0.0245715 -5.57119e-05 7.67118e-18)
(0.0212538 -4.13895e-05 6.63176e-18)
(0.0180562 -2.96576e-05 5.6176e-18)
(0.0149763 -2.02459e-05 4.6378e-18)
(0.0120115 -1.29045e-05 3.69778e-18)
(0.00915884 -7.40096e-06 2.8008e-18)
(0.00641548 -3.53334e-06 1.94856e-18)
(0.00377838 -1.16845e-06 1.13995e-18)
(0.00124448 -1.82097e-07 3.72408e-19)
(0.165201 -0.000284351 -1.92111e-17)
(0.165223 -0.000648254 -4.26164e-17)
(0.16524 -0.00101908 -6.10859e-17)
(0.165198 -0.00135627 -5.76243e-17)
(0.165033 -0.00165148 -1.80905e-17)
(0.164679 -0.00190048 1.60556e-17)
(0.164073 -0.00210113 4.63918e-17)
(0.163158 -0.00225296 8.01669e-17)
(0.161889 -0.00235707 1.19145e-16)
(0.160231 -0.002416 1.66539e-16)
(0.158167 -0.00243346 1.27297e-16)
(0.15569 -0.00241404 1.07345e-16)
(0.152808 -0.0023629 9.38873e-17)
(0.149538 -0.00228548 8.4282e-17)