/*--------------------------------*- C++ -*----------------------------------*\
| =========                 |                                                 |
| \\      /  F ield         | OpenFOAM: The Open Source CFD Toolbox           |
|  \\    /   O peration     | Version:  5.x                                   |
|   \\  /    A nd           | Web:      www.OpenFOAM.org                      |
|    \\/     M anipulation  |                                                 |
\*---------------------------------------------------------------------------*/
FoamFile
{
    version     2.0;
    format      ascii;
    class       volScalarField;
    location    "0.004";
    object      dpstar;
}
// * * * * * * * * * * * * * * * * * * * * * * * * * * * * * * * * * * * * * //

dimensions      [0 1 0 0 0 0 0];

internalField   nonuniform List<scalar> 
7950
(
-3.748299196e-10
-3.748297085e-10
-3.748293781e-10
-3.748288824e-10
-3.748282215e-10
-3.748273894e-10
-3.748263821e-10
-3.748251939e-10
-3.748238179e-10
-3.748222481e-10
-3.748204748e-10
-3.748184896e-10
-3.748162804e-10
-3.748138364e-10
-3.748111438e-10
-3.748081862e-10
-3.74804947e-10
-3.748014074e-10
-3.747975464e-10
-3.747933399e-10
-3.747887621e-10
-3.747837842e-10
-3.747783731e-10
-3.747724945e-10
-3.747661077e-10
-3.747591693e-10
-3.747516308e-10
-3.747434381e-10
-3.747345312e-10
-3.74724844e-10
-3.747143033e-10
-3.747028276e-10
-3.746903269e-10
-3.746766883e-10
-3.746618121e-10
-3.746456092e-10
-3.746278571e-10
-3.74608436e-10
-3.745872316e-10
-3.7456398e-10
-3.745384948e-10
-3.745105382e-10
-3.744798434e-10
-3.744461139e-10
-3.744090182e-10
-3.743681774e-10
-3.743231802e-10
-3.742736938e-10
-3.742193027e-10
-3.741581437e-10
-3.487578096e-10
-3.487576979e-10
-3.487574482e-10
-3.487570662e-10
-3.487565531e-10
-3.487559086e-10
-3.487551314e-10
-3.487542202e-10
-3.487531733e-10
-3.487519884e-10
-3.48750663e-10
-3.487491947e-10
-3.487475808e-10
-3.487458178e-10
-3.487439021e-10
-3.4874183e-10
-3.487395973e-10
-3.487371997e-10
-3.487346324e-10
-3.487318907e-10
-3.487289688e-10
-3.487258613e-10
-3.487225621e-10
-3.487190653e-10
-3.487153643e-10
-3.48711452e-10
-3.48707322e-10
-3.487029665e-10
-3.486983787e-10
-3.486935508e-10
-3.486884753e-10
-3.486831447e-10
-3.486775518e-10
-3.486716894e-10
-3.486655506e-10
-3.486591295e-10
-3.486524212e-10
-3.486454199e-10
-3.486381237e-10
-3.48630531e-10
-3.486226426e-10
-3.48614461e-10
-3.486059904e-10
-3.48597238e-10
-3.485882124e-10
-3.485789228e-10
-3.485693781e-10
-3.485595788e-10
-3.485494966e-10
-3.48538986e-10
-3.495866626e-10
-3.495865741e-10
-3.495863786e-10
-3.495860816e-10
-3.49585684e-10
-3.495851855e-10
-3.495845863e-10
-3.49583887e-10
-3.495830864e-10
-3.495821852e-10
-3.495811828e-10
-3.495800791e-10
-3.495788739e-10
-3.495775672e-10
-3.49576159e-10
-3.495746489e-10
-3.495730373e-10
-3.495713235e-10
-3.495695078e-10
-3.495675906e-10
-3.495655723e-10
-3.495634527e-10
-3.495612328e-10
-3.49558913e-10
-3.495564939e-10
-3.495539771e-10
-3.495513632e-10
-3.495486542e-10
-3.495458518e-10
-3.495429575e-10
-3.495399743e-10
-3.495369045e-10
-3.495337516e-10
-3.495305188e-10
-3.495272104e-10
-3.495238307e-10
-3.495203849e-10
-3.495168782e-10
-3.495133173e-10
-3.495097084e-10
-3.495060593e-10
-3.495023777e-10
-3.494986727e-10
-3.494949531e-10
-3.49491229e-10
-3.49487511e-10
-3.494838101e-10
-3.494801378e-10
-3.494765058e-10
-3.494729267e-10
-3.504721969e-10
-3.504721431e-10
-3.50472025e-10
-3.504718454e-10
-3.504716054e-10
-3.504713049e-10
-3.504709442e-10
-3.50470524e-10
-3.504700446e-10
-3.50469506e-10
-3.504689088e-10
-3.504682536e-10
-3.504675409e-10
-3.504667711e-10
-3.504659451e-10
-3.504650636e-10
-3.504641268e-10
-3.504631364e-10
-3.504620927e-10
-3.50460997e-10
-3.504598504e-10
-3.504586541e-10
-3.504574091e-10
-3.504561171e-10
-3.504547792e-10
-3.504533974e-10
-3.504519732e-10
-3.504505083e-10
-3.504490049e-10
-3.504474649e-10
-3.504458903e-10
-3.504442838e-10
-3.504426473e-10
-3.504409839e-10
-3.504392956e-10
-3.50437586e-10
-3.504358577e-10
-3.504341134e-10
-3.50432357e-10
-3.504305911e-10
-3.504288195e-10
-3.504270454e-10
-3.504252729e-10
-3.504235048e-10
-3.504217456e-10
-3.504199989e-10
-3.504182681e-10
-3.504165571e-10
-3.504148696e-10
-3.504132094e-10
-3.513871592e-10
-3.513871298e-10
-3.513870653e-10
-3.513869673e-10
-3.513868363e-10
-3.513866725e-10
-3.513864764e-10
-3.51386248e-10
-3.513859874e-10
-3.513856955e-10
-3.513853723e-10
-3.513850181e-10
-3.513846339e-10
-3.513842197e-10
-3.513837761e-10
-3.513833037e-10
-3.513828033e-10
-3.513822753e-10
-3.513817209e-10
-3.513811403e-10
-3.513805348e-10
-3.51379905e-10
-3.513792515e-10
-3.513785758e-10
-3.513778786e-10
-3.51377161e-10
-3.513764239e-10
-3.513756686e-10
-3.513748964e-10
-3.513741085e-10
-3.513733056e-10
-3.513724896e-10
-3.513716619e-10
-3.513708232e-10
-3.513699756e-10
-3.513691201e-10
-3.513682585e-10
-3.513673917e-10
-3.513665218e-10
-3.513656503e-10
-3.513647785e-10
-3.513639079e-10
-3.513630402e-10
-3.513621774e-10
-3.513613202e-10
-3.513604708e-10
-3.513596306e-10
-3.513588009e-10
-3.513579834e-10
-3.513571796e-10
-3.523196412e-10
-3.523196261e-10
-3.523195925e-10
-3.523195415e-10
-3.523194733e-10
-3.523193884e-10
-3.523192865e-10
-3.523191676e-10
-3.523190324e-10
-3.523188811e-10
-3.523187135e-10
-3.523185302e-10
-3.523183316e-10
-3.523181175e-10
-3.523178884e-10
-3.523176452e-10
-3.523173876e-10
-3.523171162e-10
-3.523168313e-10
-3.523165339e-10
-3.523162238e-10
-3.523159017e-10
-3.523155685e-10
-3.52315224e-10
-3.523148696e-10
-3.52314505e-10
-3.523141317e-10
-3.523137494e-10
-3.523133591e-10
-3.523129618e-10
-3.523125577e-10
-3.523121476e-10
-3.52311732e-10
-3.523113122e-10
-3.523108883e-10
-3.523104608e-10
-3.523100315e-10
-3.523095998e-10
-3.523091676e-10
-3.523087347e-10
-3.523083024e-10
-3.523078715e-10
-3.523074421e-10
-3.523070156e-10
-3.523065923e-10
-3.523061732e-10
-3.523057586e-10
-3.523053497e-10
-3.52304947e-10
-3.523045509e-10
-3.532627844e-10
-3.532627766e-10
-3.532627596e-10
-3.532627336e-10
-3.532626988e-10
-3.532626558e-10
-3.532626037e-10
-3.532625435e-10
-3.532624747e-10
-3.532623979e-10
-3.532623127e-10
-3.532622198e-10
-3.532621188e-10
-3.532620105e-10
-3.532618944e-10
-3.53261771e-10
-3.532616407e-10
-3.532615035e-10
-3.532613594e-10
-3.53261209e-10
-3.532610527e-10
-3.5326089e-10
-3.532607222e-10
-3.532605486e-10
-3.532603701e-10
-3.532601869e-10
-3.532599991e-10
-3.532598072e-10
-3.532596114e-10
-3.53259412e-10
-3.532592098e-10
-3.532590044e-10
-3.532587967e-10
-3.532585867e-10
-3.532583749e-10
-3.532581617e-10
-3.532579473e-10
-3.532577322e-10
-3.532575168e-10
-3.532573014e-10
-3.532570863e-10
-3.532568718e-10
-3.532566584e-10
-3.532564465e-10
-3.532562362e-10
-3.532560279e-10
-3.532558221e-10
-3.532556193e-10
-3.532554193e-10
-3.532552228e-10
-3.542129398e-10
-3.542129356e-10
-3.542129272e-10
-3.54212914e-10
-3.542128966e-10
-3.54212875e-10
-3.542128488e-10
-3.542128185e-10
-3.54212784e-10
-3.542127453e-10
-3.542127024e-10
-3.542126556e-10
-3.54212605e-10
-3.542125501e-10
-3.542124921e-10
-3.542124301e-10
-3.542123646e-10
-3.542122956e-10
-3.542122233e-10
-3.542121478e-10
-3.542120691e-10
-3.542119878e-10
-3.542119036e-10
-3.542118165e-10
-3.542117272e-10
-3.542116352e-10
-3.542115414e-10
-3.542114452e-10
-3.542113475e-10
-3.542112478e-10
-3.542111465e-10
-3.542110439e-10
-3.542109401e-10
-3.542108352e-10
-3.542107294e-10
-3.54210623e-10
-3.542105162e-10
-3.542104087e-10
-3.542103013e-10
-3.542101939e-10
-3.542100865e-10
-3.542099797e-10
-3.542098736e-10
-3.542097678e-10
-3.542096632e-10
-3.542095594e-10
-3.542094571e-10
-3.542093558e-10
-3.542092565e-10
-3.542091584e-10
-3.551682385e-10
-3.551682366e-10
-3.55168232e-10
-3.551682256e-10
-3.551682168e-10
-3.551682058e-10
-3.551681929e-10
-3.551681776e-10
-3.551681605e-10
-3.551681411e-10
-3.551681194e-10
-3.551680961e-10
-3.551680705e-10
-3.551680433e-10
-3.551680142e-10
-3.551679831e-10
-3.551679504e-10
-3.551679158e-10
-3.551678795e-10
-3.55167842e-10
-3.551678025e-10
-3.551677617e-10
-3.551677196e-10
-3.551676763e-10
-3.551676316e-10
-3.551675856e-10
-3.551675387e-10
-3.551674905e-10
-3.551674416e-10
-3.551673917e-10
-3.551673412e-10
-3.551672901e-10
-3.551672383e-10
-3.551671859e-10
-3.551671331e-10
-3.5516708e-10
-3.551670266e-10
-3.551669729e-10
-3.551669195e-10
-3.551668658e-10
-3.551668123e-10
-3.551667589e-10
-3.551667059e-10
-3.551666531e-10
-3.55166601e-10
-3.551665492e-10
-3.55166498e-10
-3.551664479e-10
-3.55166398e-10
-3.551663495e-10
-3.56127743e-10
-3.56127742e-10
-3.561277401e-10
-3.561277368e-10
-3.561277323e-10
-3.561277267e-10
-3.561277202e-10
-3.561277128e-10
-3.56127704e-10
-3.561276943e-10
-3.561276835e-10
-3.561276719e-10
-3.561276592e-10
-3.561276455e-10
-3.561276309e-10
-3.561276153e-10
-3.561275991e-10
-3.561275819e-10
-3.561275637e-10
-3.561275449e-10
-3.561275254e-10
-3.561275049e-10
-3.561274838e-10
-3.56127462e-10
-3.561274396e-10
-3.561274169e-10
-3.561273932e-10
-3.561273695e-10
-3.561273448e-10
-3.561273201e-10
-3.561272948e-10
-3.561272691e-10
-3.561272435e-10
-3.561272172e-10
-3.561271908e-10
-3.561271642e-10
-3.561271376e-10
-3.56127111e-10
-3.561270843e-10
-3.561270574e-10
-3.561270307e-10
-3.561270041e-10
-3.561269778e-10
-3.561269515e-10
-3.561269252e-10
-3.561268995e-10
-3.561268739e-10
-3.561268489e-10
-3.561268242e-10
-3.561267998e-10
-3.570909911e-10
-3.570909905e-10
-3.570909895e-10
-3.570909878e-10
-3.570909856e-10
-3.57090983e-10
-3.570909797e-10
-3.570909758e-10
-3.570909715e-10
-3.570909667e-10
-3.570909614e-10
-3.570909556e-10
-3.570909491e-10
-3.570909422e-10
-3.570909351e-10
-3.570909272e-10
-3.570909191e-10
-3.570909106e-10
-3.570909015e-10
-3.57090892e-10
-3.570908823e-10
-3.570908722e-10
-3.570908617e-10
-3.570908506e-10
-3.570908396e-10
-3.570908282e-10
-3.570908164e-10
-3.570908044e-10
-3.570907923e-10
-3.570907799e-10
-3.570907672e-10
-3.570907545e-10
-3.570907415e-10
-3.570907284e-10
-3.570907154e-10
-3.57090702e-10
-3.570906887e-10
-3.570906753e-10
-3.570906623e-10
-3.570906489e-10
-3.570906356e-10
-3.570906222e-10
-3.570906088e-10
-3.570905958e-10
-3.570905828e-10
-3.570905701e-10
-3.570905573e-10
-3.570905446e-10
-3.570905323e-10
-3.570905202e-10
-3.580577592e-10
-3.580577589e-10
-3.580577582e-10
-3.580577576e-10
-3.580577566e-10
-3.58057755e-10
-3.580577533e-10
-3.580577517e-10
-3.580577494e-10
-3.580577471e-10
-3.580577445e-10
-3.580577415e-10
-3.580577383e-10
-3.580577347e-10
-3.580577311e-10
-3.580577275e-10
-3.580577232e-10
-3.58057719e-10
-3.580577144e-10
-3.580577098e-10
-3.580577049e-10
-3.580576997e-10
-3.580576945e-10
-3.580576892e-10
-3.580576837e-10
-3.580576778e-10
-3.580576719e-10
-3.58057666e-10
-3.580576598e-10
-3.580576536e-10
-3.580576474e-10
-3.580576412e-10
-3.580576346e-10
-3.580576281e-10
-3.580576215e-10
-3.58057615e-10
-3.580576081e-10
-3.580576016e-10
-3.580575951e-10
-3.580575882e-10
-3.580575816e-10
-3.580575751e-10
-3.580575686e-10
-3.580575617e-10
-3.580575555e-10
-3.580575489e-10
-3.580575427e-10
-3.580575362e-10
-3.580575303e-10
-3.580575241e-10
-3.590279441e-10
-3.590279441e-10
-3.590279438e-10
-3.590279435e-10
-3.590279428e-10
-3.590279422e-10
-3.590279412e-10
-3.590279405e-10
-3.590279392e-10
-3.590279382e-10
-3.590279369e-10
-3.590279353e-10
-3.590279336e-10
-3.59027932e-10
-3.590279304e-10
-3.590279284e-10
-3.590279261e-10
-3.590279241e-10
-3.590279218e-10
-3.590279195e-10
-3.590279169e-10
-3.590279146e-10
-3.59027912e-10
-3.590279094e-10
-3.590279064e-10
-3.590279035e-10
-3.590279005e-10
-3.590278976e-10
-3.590278946e-10
-3.590278916e-10
-3.590278884e-10
-3.590278851e-10
-3.590278821e-10
-3.590278788e-10
-3.590278756e-10
-3.590278723e-10
-3.59027869e-10
-3.590278654e-10
-3.590278621e-10
-3.590278588e-10
-3.590278556e-10
-3.590278523e-10
-3.59027849e-10
-3.590278457e-10
-3.590278424e-10
-3.590278391e-10
-3.590278362e-10
-3.590278329e-10
-3.5902783e-10
-3.59027827e-10
-3.600015031e-10
-3.600015031e-10
-3.600015031e-10
-3.600015028e-10
-3.600015025e-10
-3.600015021e-10
-3.600015018e-10
-3.600015011e-10
-3.600015008e-10
-3.600015002e-10
-3.600014995e-10
-3.600014988e-10
-3.600014979e-10
-3.600014972e-10
-3.600014962e-10
-3.600014952e-10
-3.600014942e-10
-3.600014932e-10
-3.600014919e-10
-3.600014909e-10
-3.600014896e-10
-3.600014883e-10
-3.60001487e-10
-3.600014857e-10
-3.600014844e-10
-3.60001483e-10
-3.600014814e-10
-3.600014801e-10
-3.600014784e-10
-3.600014768e-10
-3.600014755e-10
-3.600014738e-10
-3.600014722e-10
-3.600014705e-10
-3.600014689e-10
-3.600014672e-10
-3.600014656e-10
-3.600014639e-10
-3.600014623e-10
-3.600014607e-10
-3.60001459e-10
-3.600014574e-10
-3.600014557e-10
-3.600014541e-10
-3.600014524e-10
-3.600014508e-10
-3.600014491e-10
-3.600014478e-10
-3.600014462e-10
-3.600014445e-10
-3.609784234e-10
-3.609784234e-10
-3.609784231e-10
-3.609784231e-10
-3.609784231e-10
-3.609784227e-10
-3.609784227e-10
-3.609784224e-10
-3.609784221e-10
-3.609784217e-10
-3.609784214e-10
-3.609784211e-10
-3.609784207e-10
-3.609784204e-10
-3.609784198e-10
-3.609784194e-10
-3.609784188e-10
-3.609784184e-10
-3.609784178e-10
-3.609784171e-10
-3.609784164e-10
-3.609784158e-10
-3.609784151e-10
-3.609784145e-10
-3.609784138e-10
-3.609784131e-10
-3.609784125e-10
-3.609784118e-10
-3.609784108e-10
-3.609784102e-10
-3.609784095e-10
-3.609784085e-10
-3.609784079e-10
-3.609784069e-10
-3.609784062e-10
-3.609784052e-10
-3.609784046e-10
-3.609784036e-10
-3.609784029e-10
-3.609784019e-10
-3.609784013e-10
-3.609784003e-10
-3.609783996e-10
-3.609783986e-10
-3.609783979e-10
-3.60978397e-10
-3.609783963e-10
-3.609783956e-10
-3.609783946e-10
-3.60978394e-10
-3.619587068e-10
-3.619587068e-10
-3.619587068e-10
-3.619587068e-10
-3.619587065e-10
-3.619587065e-10
-3.619587065e-10
-3.619587061e-10
-3.619587061e-10
-3.619587061e-10
-3.619587058e-10
-3.619587055e-10
-3.619587055e-10
-3.619587051e-10
-3.619587051e-10
-3.619587048e-10
-3.619587045e-10
-3.619587041e-10
-3.619587038e-10
-3.619587038e-10
-3.619587035e-10
-3.619587031e-10
-3.619587028e-10
-3.619587025e-10
-3.619587021e-10
-3.619587018e-10
-3.619587011e-10
-3.619587008e-10
-3.619587005e-10
-3.619587002e-10
-3.619586998e-10
-3.619586995e-10
-3.619586988e-10
-3.619586985e-10
-3.619586982e-10
-3.619586978e-10
-3.619586972e-10
-3.619586968e-10
-3.619586965e-10
-3.619586962e-10
-3.619586955e-10
-3.619586952e-10
-3.619586948e-10
-3.619586945e-10
-3.619586939e-10
-3.619586935e-10
-3.619586932e-10
-3.619586929e-10
-3.619586925e-10
-3.619586922e-10
-3.629423634e-10
-3.629423634e-10
-3.629423634e-10
-3.629423631e-10
-3.629423631e-10
-3.629423631e-10
-3.629423631e-10
-3.629423631e-10
-3.629423631e-10
-3.629423627e-10
-3.629423627e-10
-3.629423627e-10
-3.629423627e-10
-3.629423624e-10
-3.629423624e-10
-3.629423624e-10
-3.629423621e-10
-3.629423621e-10
-3.629423617e-10
-3.629423617e-10
-3.629423614e-10
-3.629423614e-10
-3.629423614e-10
-3.629423611e-10
-3.629423607e-10
-3.629423607e-10
-3.629423604e-10
-3.629423604e-10
-3.629423601e-10
-3.629423601e-10
-3.629423597e-10
-3.629423594e-10
-3.629423594e-10
-3.629423591e-10
-3.629423591e-10
-3.629423587e-10
-3.629423584e-10
-3.629423584e-10
-3.629423581e-10
-3.629423581e-10
-3.629423577e-10
-3.629423574e-10
-3.629423574e-10
-3.629423571e-10
-3.629423567e-10
-3.629423567e-10
-3.629423564e-10
-3.629423561e-10
-3.629423561e-10
-3.629423557e-10
-3.639294067e-10
-3.639294067e-10
-3.639294067e-10
-3.639294067e-10
-3.639294067e-10
-3.639294063e-10
-3.639294063e-10
-3.639294063e-10
-3.639294063e-10
-3.639294063e-10
-3.639294063e-10
-3.639294063e-10
-3.639294063e-10
-3.639294063e-10
-3.63929406e-10
-3.63929406e-10
-3.63929406e-10
-3.63929406e-10
-3.63929406e-10
-3.639294057e-10
-3.639294057e-10
-3.639294057e-10
-3.639294057e-10
-3.639294053e-10
-3.639294053e-10
-3.639294053e-10
-3.639294053e-10
-3.63929405e-10
-3.63929405e-10
-3.63929405e-10
-3.63929405e-10
-3.639294046e-10
-3.639294046e-10
-3.639294046e-10
-3.639294043e-10
-3.639294043e-10
-3.639294043e-10
-3.63929404e-10
-3.63929404e-10
-3.63929404e-10
-3.63929404e-10
-3.639294036e-10
-3.639294036e-10
-3.639294036e-10
-3.639294033e-10
-3.639294033e-10
-3.639294033e-10
-3.639294033e-10
-3.63929403e-10
-3.63929403e-10
-3.649198521e-10
-3.649198521e-10
-3.649198521e-10
-3.649198521e-10
-3.649198521e-10
-3.649198521e-10
-3.649198521e-10
-3.649198521e-10
-3.649198521e-10
-3.649198521e-10
-3.649198521e-10
-3.649198521e-10
-3.649198521e-10
-3.649198521e-10
-3.649198521e-10
-3.649198521e-10
-3.649198517e-10
-3.649198517e-10
-3.649198517e-10
-3.649198517e-10
-3.649198517e-10
-3.649198517e-10
-3.649198517e-10
-3.649198517e-10
-3.649198517e-10
-3.649198514e-10
-3.649198514e-10
-3.649198514e-10
-3.649198514e-10
-3.649198514e-10
-3.649198514e-10
-3.649198514e-10
-3.649198511e-10
-3.649198511e-10
-3.649198511e-10
-3.649198511e-10
-3.649198511e-10
-3.649198511e-10
-3.649198511e-10
-3.649198507e-10
-3.649198507e-10
-3.649198507e-10
-3.649198507e-10
-3.649198507e-10
-3.649198507e-10
-3.649198507e-10
-3.649198504e-10
-3.649198504e-10
-3.649198504e-10
-3.649198504e-10
-3.659137169e-10
-3.659137169e-10
-3.659137169e-10
-3.659137169e-10
-3.659137169e-10
-3.659137169e-10
-3.659137169e-10
-3.659137169e-10
-3.659137169e-10
-3.659137169e-10
-3.659137166e-10
-3.659137166e-10
-3.659137166e-10
-3.659137166e-10
-3.659137166e-10
-3.659137166e-10
-3.659137166e-10
-3.659137166e-10
-3.659137166e-10
-3.659137166e-10
-3.659137166e-10
-3.659137166e-10
-3.659137166e-10
-3.659137166e-10
-3.659137166e-10
-3.659137166e-10
-3.659137166e-10
-3.659137166e-10
-3.659137166e-10
-3.659137163e-10
-3.659137163e-10
-3.659137163e-10
-3.659137163e-10
-3.659137163e-10
-3.659137163e-10
-3.659137163e-10
-3.659137163e-10
-3.659137163e-10
-3.659137163e-10
-3.659137163e-10
-3.659137163e-10
-3.659137163e-10
-3.659137163e-10
-3.659137159e-10
-3.659137159e-10
-3.659137159e-10
-3.659137159e-10
-3.659137159e-10
-3.659137159e-10
-3.659137159e-10
-3.669110176e-10
-3.669110176e-10
-3.669110176e-10
-3.669110176e-10
-3.669110176e-10
-3.669110176e-10
-3.669110176e-10
-3.669110176e-10
-3.669110176e-10
-3.669110176e-10
-3.669110176e-10
-3.669110176e-10
-3.669110176e-10
-3.669110176e-10
-3.669110176e-10
-3.669110176e-10
-3.669110176e-10
-3.669110176e-10
-3.669110176e-10
-3.669110176e-10
-3.669110176e-10
-3.669110176e-10
-3.669110176e-10
-3.669110176e-10
-3.669110176e-10
-3.669110176e-10
-3.669110176e-10
-3.669110176e-10
-3.669110176e-10
-3.669110176e-10
-3.669110176e-10
-3.669110176e-10
-3.669110176e-10
-3.669110176e-10
-3.669110176e-10
-3.669110176e-10
-3.669110173e-10
-3.669110173e-10
-3.669110173e-10
-3.669110173e-10
-3.669110173e-10
-3.669110173e-10
-3.669110173e-10
-3.669110173e-10
-3.669110173e-10
-3.669110173e-10
-3.669110173e-10
-3.669110173e-10
-3.669110173e-10
-3.669110173e-10
-3.679117727e-10
-3.679117727e-10
-3.679117727e-10
-3.679117727e-10
-3.679117727e-10
-3.679117727e-10
-3.679117727e-10
-3.679117727e-10
-3.679117727e-10
-3.679117727e-10
-3.679117727e-10
-3.679117727e-10
-3.679117727e-10
-3.679117727e-10
-3.679117727e-10
-3.679117727e-10
-3.679117727e-10
-3.679117727e-10
-3.679117727e-10
-3.679117727e-10
-3.679117727e-10
-3.679117727e-10
-3.679117727e-10
-3.679117727e-10
-3.679117727e-10
-3.679117727e-10
-3.679117723e-10
-3.679117723e-10
-3.679117723e-10
-3.679117723e-10
-3.679117723e-10
-3.679117723e-10
-3.679117723e-10
-3.679117723e-10
-3.679117723e-10
-3.679117723e-10
-3.679117723e-10
-3.679117723e-10
-3.679117723e-10
-3.679117723e-10
-3.679117723e-10
-3.679117723e-10
-3.679117723e-10
-3.679117723e-10
-3.679117723e-10
-3.679117723e-10
-3.679117723e-10
-3.679117723e-10
-3.679117723e-10
-3.679117723e-10
-3.689159994e-10
-3.689159994e-10
-3.689159994e-10
-3.689159994e-10
-3.689159994e-10
-3.689159994e-10
-3.689159994e-10
-3.689159994e-10
-3.689159994e-10
-3.689159994e-10
-3.689159994e-10
-3.689159994e-10
-3.689159994e-10
-3.689159994e-10
-3.689159991e-10
-3.689159991e-10
-3.689159991e-10
-3.689159991e-10
-3.689159991e-10
-3.689159991e-10
-3.689159991e-10
-3.689159991e-10
-3.689159991e-10
-3.689159991e-10
-3.689159991e-10
-3.689159991e-10
-3.689159991e-10
-3.689159991e-10
-3.689159991e-10
-3.689159991e-10
-3.689159991e-10
-3.689159991e-10
-3.689159991e-10
-3.689159991e-10
-3.689159991e-10
-3.689159991e-10
-3.689159991e-10
-3.689159991e-10
-3.689159991e-10
-3.689159991e-10
-3.689159991e-10
-3.689159991e-10
-3.689159991e-10
-3.689159991e-10
-3.689159991e-10
-3.689159991e-10
-3.689159991e-10
-3.689159991e-10
-3.689159991e-10
-3.689159991e-10
-3.699237159e-10
-3.699237159e-10
-3.699237159e-10
-3.699237159e-10
-3.699237159e-10
-3.699237159e-10
-3.699237159e-10
-3.699237159e-10
-3.699237159e-10
-3.699237159e-10
-3.699237159e-10
-3.699237159e-10
-3.699237159e-10
-3.699237159e-10
-3.699237159e-10
-3.699237159e-10
-3.699237159e-10
-3.699237159e-10
-3.699237159e-10
-3.699237159e-10
-3.699237159e-10
-3.699237159e-10
-3.699237155e-10
-3.699237155e-10
-3.699237155e-10
-3.699237155e-10
-3.699237155e-10
-3.699237155e-10
-3.699237155e-10
-3.699237155e-10
-3.699237155e-10
-3.699237155e-10
-3.699237155e-10
-3.699237155e-10
-3.699237155e-10
-3.699237155e-10
-3.699237155e-10
-3.699237155e-10
-3.699237155e-10
-3.699237155e-10
-3.699237155e-10
-3.699237155e-10
-3.699237155e-10
-3.699237155e-10
-3.699237155e-10
-3.699237155e-10
-3.699237155e-10
-3.699237155e-10
-3.699237155e-10
-3.699237155e-10
-3.709349403e-10
-3.709349403e-10
-3.709349403e-10
-3.709349403e-10
-3.709349403e-10
-3.709349403e-10
-3.709349403e-10
-3.709349403e-10
-3.709349403e-10
-3.709349403e-10
-3.709349403e-10
-3.709349403e-10
-3.709349403e-10
-3.709349403e-10
-3.709349403e-10
-3.709349403e-10
-3.709349403e-10
-3.709349403e-10
-3.709349403e-10
-3.709349403e-10
-3.709349403e-10
-3.709349403e-10
-3.709349403e-10
-3.709349403e-10
-3.709349403e-10
-3.709349403e-10
-3.709349403e-10
-3.709349403e-10
-3.709349403e-10
-3.709349403e-10
-3.709349403e-10
-3.709349403e-10
-3.709349403e-10
-3.709349403e-10
-3.709349403e-10
-3.709349403e-10
-3.709349403e-10
-3.709349403e-10
-3.709349403e-10
-3.709349403e-10
-3.709349403e-10
-3.709349403e-10
-3.709349403e-10
-3.709349403e-10
-3.709349403e-10
-3.709349403e-10
-3.709349403e-10
-3.709349403e-10
-3.709349403e-10
-3.709349403e-10
-3.719496911e-10
-3.719496911e-10
-3.719496911e-10
-3.719496911e-10
-3.719496911e-10
-3.719496911e-10
-3.719496911e-10
-3.719496911e-10
-3.719496911e-10
-3.719496911e-10
-3.719496911e-10
-3.719496911e-10
-3.719496911e-10
-3.719496911e-10
-3.719496911e-10
-3.719496911e-10
-3.719496911e-10
-3.719496911e-10
-3.719496911e-10
-3.719496911e-10
-3.719496911e-10
-3.719496911e-10
-3.719496911e-10
-3.719496911e-10
-3.719496911e-10
-3.719496911e-10
-3.719496911e-10
-3.719496911e-10
-3.719496911e-10
-3.719496911e-10
-3.719496911e-10
-3.719496911e-10
-3.719496911e-10
-3.719496911e-10
-3.719496911e-10
-3.719496911e-10
-3.719496911e-10
-3.719496911e-10
-3.719496911e-10
-3.719496911e-10
-3.719496911e-10
-3.719496911e-10
-3.719496911e-10
-3.719496911e-10
-3.719496911e-10
-3.719496911e-10
-3.719496911e-10
-3.719496911e-10
-3.719496911e-10
-3.719496911e-10
-3.729679866e-10
-3.729679866e-10
-3.729679866e-10
-3.729679866e-10
-3.729679866e-10
-3.729679866e-10
-3.729679866e-10
-3.729679866e-10
-3.729679866e-10
-3.729679866e-10
-3.729679866e-10
-3.729679866e-10
-3.729679866e-10
-3.729679866e-10
-3.729679866e-10
-3.729679866e-10
-3.729679866e-10
-3.729679866e-10
-3.729679866e-10
-3.729679866e-10
-3.729679866e-10
-3.729679866e-10
-3.729679866e-10
-3.729679866e-10
-3.729679866e-10
-3.729679866e-10
-3.729679866e-10
-3.729679866e-10
-3.729679866e-10
-3.729679866e-10
-3.729679866e-10
-3.729679866e-10
-3.729679866e-10
-3.729679866e-10
-3.729679866e-10
-3.729679866e-10
-3.729679866e-10
-3.729679866e-10
-3.729679866e-10
-3.729679866e-10
-3.729679866e-10
-3.729679866e-10
-3.729679866e-10
-3.729679866e-10
-3.729679866e-10
-3.729679866e-10
-3.729679866e-10
-3.729679866e-10
-3.729679866e-10
-3.729679866e-10
-3.739898456e-10
-3.739898456e-10
-3.739898456e-10
-3.739898456e-10
-3.739898456e-10
-3.739898456e-10
-3.739898456e-10
-3.739898456e-10
-3.739898456e-10
-3.739898456e-10
-3.739898456e-10
-3.739898456e-10
-3.739898456e-10
-3.739898456e-10
-3.739898456e-10
-3.739898456e-10
-3.739898456e-10
-3.739898456e-10
-3.739898456e-10
-3.739898456e-10
-3.739898456e-10
-3.739898456e-10
-3.739898456e-10
-3.739898456e-10
-3.739898456e-10
-3.739898456e-10
-3.739898456e-10
-3.739898456e-10
-3.739898456e-10
-3.739898456e-10
-3.739898456e-10
-3.739898456e-10
-3.739898456e-10
-3.739898456e-10
-3.739898456e-10
-3.739898456e-10
-3.739898456e-10
-3.739898456e-10
-3.739898456e-10
-3.739898456e-10
-3.739898456e-10
-3.739898456e-10
-3.739898456e-10
-3.739898456e-10
-3.739898456e-10
-3.739898456e-10
-3.739898456e-10
-3.739898456e-10
-3.739898456e-10
-3.739898456e-10
-3.750152868e-10
-3.750152868e-10
-3.750152868e-10
-3.750152868e-10
-3.750152868e-10
-3.750152868e-10
-3.750152868e-10
-3.750152868e-10
-3.750152868e-10
-3.750152868e-10
-3.750152868e-10
-3.750152868e-10
-3.750152868e-10
-3.750152868e-10
-3.750152868e-10
-3.750152868e-10
-3.750152868e-10
-3.750152868e-10
-3.750152868e-10
-3.750152868e-10
-3.750152868e-10
-3.750152868e-10
-3.750152868e-10
-3.750152868e-10
-3.750152868e-10
-3.750152868e-10
-3.750152868e-10
-3.750152868e-10
-3.750152868e-10
-3.750152868e-10
-3.750152868e-10
-3.750152868e-10
-3.750152868e-10
-3.750152868e-10
-3.750152868e-10
-3.750152868e-10
-3.750152868e-10
-3.750152868e-10
-3.750152868e-10
-3.750152868e-10
-3.750152868e-10
-3.750152868e-10
-3.750152868e-10
-3.750152868e-10
-3.750152868e-10
-3.750152868e-10
-3.750152868e-10
-3.750152868e-10
-3.750152868e-10
-3.750152868e-10
-3.760443289e-10
-3.760443289e-10
-3.760443289e-10
-3.760443289e-10
-3.760443289e-10
-3.760443289e-10
-3.760443289e-10
-3.760443289e-10
-3.760443289e-10
-3.760443289e-10
-3.760443289e-10
-3.760443289e-10
-3.760443289e-10
-3.760443289e-10
-3.760443289e-10
-3.760443289e-10
-3.760443289e-10
-3.760443289e-10
-3.760443289e-10
-3.760443289e-10
-3.760443289e-10
-3.760443289e-10
-3.760443289e-10
-3.760443289e-10
-3.760443289e-10
-3.760443289e-10
-3.760443289e-10
-3.760443289e-10
-3.760443289e-10
-3.760443289e-10
-3.760443289e-10
-3.760443289e-10
-3.760443289e-10
-3.760443289e-10
-3.760443289e-10
-3.760443289e-10
-3.760443289e-10
-3.760443289e-10
-3.760443289e-10
-3.760443289e-10
-3.760443289e-10
-3.760443289e-10
-3.760443289e-10
-3.760443289e-10
-3.760443289e-10
-3.760443289e-10
-3.760443289e-10
-3.760443289e-10
-3.760443289e-10
-3.760443289e-10
-3.770769914e-10
-3.770769914e-10
-3.770769914e-10
-3.770769914e-10
-3.770769914e-10
-3.770769914e-10
-3.770769914e-10
-3.770769914e-10
-3.770769914e-10
-3.770769914e-10
-3.770769914e-10
-3.770769914e-10
-3.770769914e-10
-3.770769914e-10
-3.770769914e-10
-3.770769914e-10
-3.770769914e-10
-3.770769914e-10
-3.770769914e-10
-3.770769914e-10
-3.770769914e-10
-3.770769914e-10
-3.770769914e-10
-3.770769914e-10
-3.770769914e-10
-3.770769914e-10
-3.770769914e-10
-3.770769914e-10
-3.770769914e-10
-3.770769914e-10
-3.770769914e-10
-3.770769914e-10
-3.770769914e-10
-3.770769914e-10
-3.770769914e-10
-3.770769914e-10
-3.770769914e-10
-3.770769914e-10
-3.770769914e-10
-3.770769914e-10
-3.770769914e-10
-3.770769914e-10
-3.770769914e-10
-3.770769914e-10
-3.770769914e-10
-3.770769914e-10
-3.770769914e-10
-3.770769914e-10
-3.770769914e-10
-3.770769914e-10
-3.781132927e-10
-3.781132927e-10
-3.781132927e-10
-3.781132927e-10
-3.781132927e-10
-3.781132927e-10
-3.781132927e-10
-3.781132927e-10
-3.781132927e-10
-3.781132927e-10
-3.781132927e-10
-3.781132927e-10
-3.781132927e-10
-3.781132927e-10
-3.781132927e-10
-3.781132927e-10
-3.781132927e-10
-3.781132927e-10
-3.781132927e-10
-3.781132927e-10
-3.781132927e-10
-3.781132927e-10
-3.781132927e-10
-3.781132927e-10
-3.781132927e-10
-3.781132927e-10
-3.781132927e-10
-3.781132927e-10
-3.781132927e-10
-3.781132927e-10
-3.781132927e-10
-3.781132927e-10
-3.781132927e-10
-3.781132927e-10
-3.781132927e-10
-3.781132927e-10
-3.781132927e-10
-3.781132927e-10
-3.781132927e-10
-3.781132927e-10
-3.781132927e-10
-3.781132927e-10
-3.781132927e-10
-3.781132927e-10
-3.781132927e-10
-3.781132927e-10
-3.781132927e-10
-3.781132927e-10
-3.781132927e-10
-3.781132927e-10
-3.791532525e-10
-3.791532525e-10
-3.791532525e-10
-3.791532525e-10
-3.791532525e-10
-3.791532525e-10
-3.791532525e-10
-3.791532525e-10
-3.791532525e-10
-3.791532525e-10
-3.791532525e-10
-3.791532525e-10
-3.791532525e-10
-3.791532525e-10
-3.791532525e-10
-3.791532525e-10
-3.791532525e-10
-3.791532525e-10
-3.791532525e-10
-3.791532525e-10
-3.791532525e-10
-3.791532525e-10
-3.791532525e-10
-3.791532525e-10
-3.791532525e-10
-3.791532525e-10
-3.791532525e-10
-3.791532525e-10
-3.791532525e-10
-3.791532525e-10
-3.791532525e-10
-3.791532525e-10
-3.791532525e-10
-3.791532525e-10
-3.791532525e-10
-3.791532525e-10
-3.791532525e-10
-3.791532525e-10
-3.791532525e-10
-3.791532525e-10
-3.791532525e-10
-3.791532525e-10
-3.791532525e-10
-3.791532525e-10
-3.791532525e-10
-3.791532525e-10
-3.791532525e-10
-3.791532525e-10
-3.791532525e-10
-3.791532525e-10
-3.801968901e-10
-3.801968901e-10
-3.801968901e-10
-3.801968901e-10
-3.801968901e-10
-3.801968901e-10
-3.801968901e-10
-3.801968901e-10
-3.801968901e-10
-3.801968901e-10
-3.801968901e-10
-3.801968901e-10
-3.801968901e-10
-3.801968901e-10
-3.801968901e-10
-3.801968901e-10
-3.801968901e-10
-3.801968901e-10
-3.801968901e-10
-3.801968901e-10
-3.801968901e-10
-3.801968901e-10
-3.801968901e-10
-3.801968901e-10
-3.801968901e-10
-3.801968901e-10
-3.801968901e-10
-3.801968901e-10
-3.801968901e-10
-3.801968901e-10
-3.801968901e-10
-3.801968901e-10
-3.801968901e-10
-3.801968901e-10
-3.801968901e-10
-3.801968901e-10
-3.801968901e-10
-3.801968901e-10
-3.801968901e-10
-3.801968901e-10
-3.801968901e-10
-3.801968901e-10
-3.801968901e-10
-3.801968901e-10
-3.801968901e-10
-3.801968901e-10
-3.801968901e-10
-3.801968901e-10
-3.801968901e-10
-3.801968901e-10
-3.81244225e-10
-3.81244225e-10
-3.81244225e-10
-3.81244225e-10
-3.81244225e-10
-3.81244225e-10
-3.81244225e-10
-3.81244225e-10
-3.81244225e-10
-3.81244225e-10
-3.81244225e-10
-3.81244225e-10
-3.81244225e-10
-3.81244225e-10
-3.81244225e-10
-3.81244225e-10
-3.81244225e-10
-3.81244225e-10
-3.81244225e-10
-3.81244225e-10