/*--------------------------------*- C++ -*----------------------------------*\
| =========                 |                                                 |
| \\      /  F ield         | OpenFOAM: The Open Source CFD Toolbox           |
|  \\    /   O peration     | Version:  5.x                                   |
|   \\  /    A nd           | Web:      www.OpenFOAM.org                      |
|    \\/     M anipulation  |                                                 |
\*---------------------------------------------------------------------------*/
FoamFile
{
    version     2.0;
    format      ascii;
    class       volScalarField;
    location    "0.004";
    object      kstar;
}
// * * * * * * * * * * * * * * * * * * * * * * * * * * * * * * * * * * * * * //

dimensions      [0 0 0 0 0 0 0];

internalField   nonuniform List<scalar> 
7950
(
-1.661096677
-1.66109387
-1.661089477
-1.661082887
-1.6610741
-1.661063038
-1.661049647
-1.66103385
-1.661015557
-1.660994688
-1.660971113
-1.660944722
-1.660915352
-1.660882862
-1.660847068
-1.660807752
-1.660764692
-1.660717641
-1.660666318
-1.660610404
-1.660549556
-1.660483391
-1.66041147
-1.660333339
-1.660248454
-1.660156243
-1.66005606
-1.659947187
-1.659828829
-1.659700109
-1.659560055
-1.659407586
-1.65924151
-1.659060329
-1.658862722
-1.65864751
-1.658411743
-1.658153835
-1.657872275
-1.657563569
-1.657225252
-1.656854181
-1.656446827
-1.655999278
-1.655507156
-1.654965463
-1.654368779
-1.653712732
-1.652991862
-1.652181545
-1.338024248
-1.338022963
-1.338020089
-1.338015692
-1.338009787
-1.338002369
-1.337993424
-1.337982936
-1.337970888
-1.33795725
-1.337941996
-1.337925097
-1.337906522
-1.337886232
-1.337864184
-1.337840338
-1.337814643
-1.337787051
-1.337757506
-1.337725954
-1.337692329
-1.33765657
-1.337618604
-1.337578365
-1.337535778
-1.337490761
-1.33744324
-1.337393124
-1.337340338
-1.33728479
-1.337226395
-1.337165067
-1.337100724
-1.337033282
-1.336962662
-1.336888799
-1.336811634
-1.336731102
-1.336647181
-1.336559854
-1.33646913
-1.336375038
-1.336277627
-1.33617698
-1.336073197
-1.335966384
-1.335856643
-1.335743982
-1.335628075
-1.33550725
-1.347586729
-1.347585705
-1.347583444
-1.347580009
-1.347575411
-1.347569646
-1.347562718
-1.34755463
-1.347545372
-1.347534951
-1.347523359
-1.347510596
-1.34749666
-1.347481549
-1.347465264
-1.347447802
-1.347429166
-1.347409348
-1.347388354
-1.347366185
-1.347342846
-1.347318337
-1.34729267
-1.347265847
-1.347237876
-1.347208776
-1.347178554
-1.347147232
-1.347114832
-1.347081369
-1.347046879
-1.347011388
-1.346974938
-1.346937563
-1.346899317
-1.346860246
-1.346820412
-1.346779875
-1.346738712
-1.346696996
-1.346654814
-1.34661226
-1.346569435
-1.346526441
-1.346483398
-1.346440425
-1.346397651
-1.346355208
-1.346313233
-1.346271869
-1.357853364
-1.357852739
-1.357851366
-1.357849279
-1.357846489
-1.357842996
-1.357838804
-1.35783392
-1.357828348
-1.357822088
-1.357815147
-1.357807532
-1.357799248
-1.357790302
-1.3577807
-1.357770456
-1.357759567
-1.357748057
-1.357735926
-1.357723191
-1.357709865
-1.357695962
-1.357681493
-1.357666476
-1.357650927
-1.357634868
-1.357618317
-1.357601292
-1.357583821
-1.357565924
-1.357547624
-1.357528954
-1.357509937
-1.357490606
-1.357470987
-1.35745112
-1.357431035
-1.357410765
-1.357390356
-1.357369836
-1.357349249
-1.357328633
-1.357308036
-1.357287492
-1.357267051
-1.357246754
-1.357226643
-1.357206762
-1.357187154
-1.357167865
-1.368515816
-1.368515472
-1.368514719
-1.368513573
-1.368512043
-1.368510129
-1.368507838
-1.36850517
-1.368502125
-1.368498714
-1.368494938
-1.3684908
-1.368486311
-1.368481471
-1.368476288
-1.368470769
-1.368464922
-1.368458754
-1.368452277
-1.368445493
-1.368438418
-1.36843106
-1.368423426
-1.368415531
-1.368407385
-1.368399001
-1.36839039
-1.368381566
-1.368372544
-1.368363339
-1.368353959
-1.368344426
-1.368334755
-1.368324958
-1.368315056
-1.368305061
-1.368294995
-1.368284869
-1.368274706
-1.368264525
-1.36825434
-1.36824417
-1.368234033
-1.368223953
-1.36821394
-1.368204016
-1.368194201
-1.368184509
-1.368174959
-1.368165569
-1.379439713
-1.379439536
-1.379439141
-1.379438543
-1.379437741
-1.379436744
-1.379435547
-1.37943415
-1.379432562
-1.379430786
-1.379428817
-1.379426664
-1.379424331
-1.379421817
-1.379419125
-1.379416269
-1.379413243
-1.379410055
-1.379406709
-1.379403216
-1.379399573
-1.37939579
-1.379391876
-1.37938783
-1.379383667
-1.379379384
-1.379375
-1.37937051
-1.379365926
-1.379361259
-1.379356513
-1.379351696
-1.379346814
-1.379341884
-1.379336905
-1.379331884
-1.379326841
-1.379321772
-1.379316695
-1.37931161
-1.379306534
-1.379301472
-1.379296429
-1.37929142
-1.379286448
-1.379281526
-1.379276656
-1.379271854
-1.379267123
-1.379262472
-1.390547482
-1.390547391
-1.390547189
-1.390546882
-1.390546472
-1.390545963
-1.390545348
-1.390544638
-1.390543826
-1.390542918
-1.390541912
-1.390540815
-1.390539623
-1.390538343
-1.390536973
-1.390535515
-1.390533977
-1.390532356
-1.390530655
-1.390528878
-1.390527033
-1.390525112
-1.39052313
-1.39052108
-1.390518973
-1.390516809
-1.390514591
-1.390512325
-1.390510013
-1.390507659
-1.390505271
-1.390502845
-1.390500392
-1.390497913
-1.390495411
-1.390492894
-1.390490362
-1.390487822
-1.390485278
-1.390482735
-1.390480195
-1.390477663
-1.390475142
-1.39047264
-1.390470157
-1.390467697
-1.390465267
-1.390462872
-1.39046051
-1.390458191
-1.401797972
-1.401797922
-1.401797822
-1.401797665
-1.401797458
-1.401797202
-1.401796892
-1.401796532
-1.401796122
-1.401795662
-1.401795153
-1.401794597
-1.401793996
-1.401793345
-1.401792656
-1.40179192
-1.401791143
-1.401790323
-1.401789465
-1.401788569
-1.401787635
-1.401786669
-1.40178567
-1.401784636
-1.401783575
-1.401782483
-1.401781369
-1.401780227
-1.401779067
-1.401777883
-1.401776681
-1.401775463
-1.40177423
-1.401772985
-1.401771729
-1.401770465
-1.401769197
-1.401767922
-1.401766646
-1.401765371
-1.401764096
-1.401762828
-1.401761568
-1.401760312
-1.401759071
-1.401757838
-1.401756624
-1.401755421
-1.401754241
-1.401753077
-1.413170373
-1.41317035
-1.413170296
-1.413170219
-1.413170114
-1.413169983
-1.413169829
-1.413169647
-1.413169442
-1.41316921
-1.413168951
-1.413168673
-1.413168368
-1.413168043
-1.413167696
-1.413167325
-1.413166935
-1.413166521
-1.413166088
-1.41316564
-1.413165169
-1.413164682
-1.41316418
-1.413163662
-1.413163129
-1.41316258
-1.41316202
-1.413161444
-1.413160861
-1.413160266
-1.413159663
-1.413159053
-1.413158434
-1.413157809
-1.413157179
-1.413156545
-1.413155908
-1.413155266
-1.413154629
-1.413153987
-1.41315335
-1.413152712
-1.413152079
-1.413151449
-1.413150827
-1.413150209
-1.413149598
-1.413148999
-1.413148404
-1.413147825
-1.424654591
-1.424654579
-1.424654556
-1.424654517
-1.424654462
-1.424654396
-1.424654318
-1.424654228
-1.424654123
-1.424654006
-1.424653877
-1.424653737
-1.424653585
-1.424653421
-1.424653246
-1.424653059
-1.424652864
-1.424652657
-1.424652439
-1.424652213
-1.424651979
-1.424651734
-1.42465148
-1.424651219
-1.42465095
-1.424650677
-1.424650393
-1.424650108
-1.424649812
-1.424649516
-1.424649212
-1.424648904
-1.424648596
-1.42464828
-1.424647964
-1.424647645
-1.424647325
-1.424647006
-1.424646686
-1.424646362
-1.424646043
-1.424645723
-1.424645407
-1.424645092
-1.424644776
-1.424644468
-1.42464416
-1.42464386
-1.424643564
-1.424643272
-1.436246029
-1.436246022
-1.43624601
-1.43624599
-1.436245963
-1.436245931
-1.436245892
-1.436245845
-1.436245793
-1.436245734
-1.436245672
-1.436245601
-1.436245522
-1.43624544
-1.436245353
-1.436245259
-1.43624516
-1.436245058
-1.436244948
-1.436244834
-1.436244716
-1.436244594
-1.436244468
-1.436244335
-1.436244201
-1.436244063
-1.436243922
-1.436243776
-1.436243631
-1.436243481
-1.436243328
-1.436243175
-1.436243017
-1.43624286
-1.436242703
-1.436242542
-1.43624238
-1.436242219
-1.436242062
-1.436241901
-1.436241739
-1.436241578
-1.436241417
-1.43624126
-1.436241102
-1.436240949
-1.436240796
-1.436240642
-1.436240493
-1.436240347
-1.447942875
-1.447942871
-1.447942863
-1.447942855
-1.447942844
-1.447942824
-1.447942804
-1.447942784
-1.447942756
-1.447942729
-1.447942697
-1.447942661
-1.447942621
-1.447942578
-1.447942534
-1.447942491
-1.447942439
-1.447942387
-1.447942332
-1.447942276
-1.447942217
-1.447942153
-1.44794209
-1.447942026
-1.447941959
-1.447941888
-1.447941816
-1.447941745
-1.447941669
-1.447941594
-1.447941519
-1.447941443
-1.447941364
-1.447941285
-1.447941205
-1.447941126
-1.447941043
-1.447940963
-1.447940884
-1.447940801
-1.447940721
-1.447940642
-1.447940563
-1.447940479
-1.447940404
-1.447940325
-1.447940249
-1.44794017
-1.447940098
-1.447940023
-1.459744732
-1.459744732
-1.459744728
-1.459744724
-1.459744716
-1.459744708
-1.459744696
-1.459744688
-1.459744672
-1.45974466
-1.459744644
-1.459744624
-1.459744604
-1.459744584
-1.459744564
-1.45974454
-1.459744512
-1.459744488
-1.45974446
-1.459744432
-1.4597444
-1.459744372
-1.45974434
-1.459744308
-1.459744272
-1.459744236
-1.4597442
-1.459744164
-1.459744128
-1.459744092
-1.459744052
-1.459744012
-1.459743976
-1.459743936
-1.459743896
-1.459743856
-1.459743816
-1.459743772
-1.459743732
-1.459743692
-1.459743652
-1.459743612
-1.459743572
-1.459743532
-1.459743492
-1.459743452
-1.459743415
-1.459743375
-1.459743339
-1.459743303
-1.471651923
-1.471651923
-1.471651923
-1.471651919
-1.471651915
-1.471651911
-1.471651907
-1.471651899
-1.471651895
-1.471651887
-1.471651879
-1.47165187
-1.471651858
-1.47165185
-1.471651838
-1.471651826
-1.471651814
-1.471651802
-1.471651786
-1.471651774
-1.471651757
-1.471651741
-1.471651725
-1.471651709
-1.471651693
-1.471651677
-1.471651656
-1.47165164
-1.47165162
-1.4716516
-1.471651584
-1.471651564
-1.471651543
-1.471651523
-1.471651503
-1.471651483
-1.471651463
-1.471651442
-1.471651422
-1.471651402
-1.471651382
-1.471651362
-1.471651342
-1.471651321
-1.471651301
-1.471651281
-1.471651261
-1.471651245
-1.471651224
-1.471651204
-1.483665135
-1.483665135
-1.483665131
-1.483665131
-1.483665131
-1.483665127
-1.483665127
-1.483665123
-1.483665119
-1.483665115
-1.483665111
-1.483665107
-1.483665103
-1.483665099
-1.48366509
-1.483665086
-1.483665078
-1.483665074
-1.483665066
-1.483665058
-1.48366505
-1.483665042
-1.483665033
-1.483665025
-1.483665017
-1.483665009
-1.483665001
-1.483664993
-1.48366498
-1.483664972
-1.483664964
-1.483664952
-1.483664944
-1.483664932
-1.483664923
-1.483664911
-1.483664903
-1.483664891
-1.483664883
-1.48366487
-1.483664862
-1.48366485
-1.483664842
-1.48366483
-1.483664822
-1.483664809
-1.483664801
-1.483664793
-1.483664781
-1.483664773
-1.495785241
-1.495785241
-1.495785241
-1.495785241
-1.495785237
-1.495785237
-1.495785237
-1.495785232
-1.495785232
-1.495785232
-1.495785228
-1.495785224
-1.495785224
-1.49578522
-1.49578522
-1.495785216
-1.495785212
-1.495785208
-1.495785204
-1.495785204
-1.4957852
-1.495785195
-1.495785191
-1.495785187
-1.495785183
-1.495785179
-1.495785171
-1.495785167
-1.495785163
-1.495785159
-1.495785154
-1.49578515
-1.495785142
-1.495785138
-1.495785134
-1.49578513
-1.495785122
-1.495785117
-1.495785113
-1.495785109
-1.495785101
-1.495785097
-1.495785093
-1.495785089
-1.49578508
-1.495785076
-1.495785072
-1.495785068
-1.495785064
-1.49578506
-1.50801322
-1.50801322
-1.50801322
-1.508013216
-1.508013216
-1.508013216
-1.508013216
-1.508013216
-1.508013216
-1.508013211
-1.508013211
-1.508013211
-1.508013211
-1.508013207
-1.508013207
-1.508013207
-1.508013203
-1.508013203
-1.508013199
-1.508013199
-1.508013195
-1.508013195
-1.508013195
-1.508013191
-1.508013187
-1.508013187
-1.508013182
-1.508013182
-1.508013178
-1.508013178
-1.508013174
-1.50801317
-1.50801317
-1.508013166
-1.508013166
-1.508013162
-1.508013158
-1.508013158
-1.508013153
-1.508013153
-1.508013149
-1.508013145
-1.508013145
-1.508013141
-1.508013137
-1.508013137
-1.508013133
-1.508013129
-1.508013129
-1.508013124
-1.520350104
-1.520350104
-1.520350104
-1.520350104
-1.520350104
-1.5203501
-1.5203501
-1.5203501
-1.5203501
-1.5203501
-1.5203501
-1.5203501
-1.5203501
-1.5203501
-1.520350095
-1.520350095
-1.520350095
-1.520350095
-1.520350095
-1.520350091
-1.520350091
-1.520350091
-1.520350091
-1.520350087
-1.520350087
-1.520350087
-1.520350087
-1.520350083
-1.520350083
-1.520350083
-1.520350083
-1.520350079
-1.520350079
-1.520350079
-1.520350074
-1.520350074
-1.520350074
-1.52035007
-1.52035007
-1.52035007
-1.52035007
-1.520350066
-1.520350066
-1.520350066
-1.520350062
-1.520350062
-1.520350062
-1.520350062
-1.520350058
-1.520350058
-1.53279696
-1.53279696
-1.53279696
-1.53279696
-1.53279696
-1.53279696
-1.53279696
-1.53279696
-1.53279696
-1.53279696
-1.53279696
-1.53279696
-1.53279696
-1.53279696
-1.53279696
-1.53279696
-1.532796956
-1.532796956
-1.532796956
-1.532796956
-1.532796956
-1.532796956
-1.532796956
-1.532796956
-1.532796956
-1.532796952
-1.532796952
-1.532796952
-1.532796952
-1.532796952
-1.532796952
-1.532796952
-1.532796947
-1.532796947
-1.532796947
-1.532796947
-1.532796947
-1.532796947
-1.532796947
-1.532796943
-1.532796943
-1.532796943
-1.532796943
-1.532796943
-1.532796943
-1.532796943
-1.532796939
-1.532796939
-1.532796939
-1.532796939
-1.545354888
-1.545354888
-1.545354888
-1.545354888
-1.545354888
-1.545354888
-1.545354888
-1.545354888
-1.545354888
-1.545354888
-1.545354884
-1.545354884
-1.545354884
-1.545354884
-1.545354884
-1.545354884
-1.545354884
-1.545354884
-1.545354884
-1.545354884
-1.545354884
-1.545354884
-1.545354884
-1.545354884
-1.545354884
-1.545354884
-1.545354884
-1.545354884
-1.545354884
-1.54535488
-1.54535488
-1.54535488
-1.54535488
-1.54535488
-1.54535488
-1.54535488
-1.54535488
-1.54535488
-1.54535488
-1.54535488
-1.54535488
-1.54535488
-1.54535488
-1.545354876
-1.545354876
-1.545354876
-1.545354876
-1.545354876
-1.545354876
-1.545354876
-1.558024989
-1.558024989
-1.558024989
-1.558024989
-1.558024989
-1.558024989
-1.558024989
-1.558024989
-1.558024989
-1.558024989
-1.558024989
-1.558024989
-1.558024989
-1.558024989
-1.558024989
-1.558024989
-1.558024989
-1.558024989
-1.558024989
-1.558024989
-1.558024989
-1.558024989
-1.558024989
-1.558024989
-1.558024989
-1.558024989
-1.558024989
-1.558024989
-1.558024989
-1.558024989
-1.558024989
-1.558024989
-1.558024989
-1.558024989
-1.558024989
-1.558024989
-1.558024984
-1.558024984
-1.558024984
-1.558024984
-1.558024984
-1.558024984
-1.558024984
-1.558024984
-1.558024984
-1.558024984
-1.558024984
-1.558024984
-1.558024984
-1.558024984
-1.570808399
-1.570808399
-1.570808399
-1.570808399
-1.570808399
-1.570808399
-1.570808399
-1.570808399
-1.570808399
-1.570808399
-1.570808399
-1.570808399
-1.570808399
-1.570808399
-1.570808399
-1.570808399
-1.570808399
-1.570808399
-1.570808399
-1.570808399
-1.570808399
-1.570808399
-1.570808399
-1.570808399
-1.570808399
-1.570808399
-1.570808394
-1.570808394
-1.570808394
-1.570808394
-1.570808394
-1.570808394
-1.570808394
-1.570808394
-1.570808394
-1.570808394
-1.570808394
-1.570808394
-1.570808394
-1.570808394
-1.570808394
-1.570808394
-1.570808394
-1.570808394
-1.570808394
-1.570808394
-1.570808394
-1.570808394
-1.570808394
-1.570808394
-1.583706252
-1.583706252
-1.583706252
-1.583706252
-1.583706252
-1.583706252
-1.583706252
-1.583706252
-1.583706252
-1.583706252
-1.583706252
-1.583706252
-1.583706252
-1.583706252
-1.583706248
-1.583706248
-1.583706248
-1.583706248
-1.583706248
-1.583706248
-1.583706248
-1.583706248
-1.583706248
-1.583706248
-1.583706248
-1.583706248
-1.583706248
-1.583706248
-1.583706248
-1.583706248
-1.583706248
-1.583706248
-1.583706248
-1.583706248
-1.583706248
-1.583706248
-1.583706248
-1.583706248
-1.583706248
-1.583706248
-1.583706248
-1.583706248
-1.583706248
-1.583706248
-1.583706248
-1.583706248
-1.583706248
-1.583706248
-1.583706248
-1.583706248
-1.596719704
-1.596719704
-1.596719704
-1.596719704
-1.596719704
-1.596719704
-1.596719704
-1.596719704
-1.596719704
-1.596719704
-1.596719704
-1.596719704
-1.596719704
-1.596719704
-1.596719704
-1.596719704
-1.596719704
-1.596719704
-1.596719704
-1.596719704
-1.596719704
-1.596719704
-1.5967197
-1.5967197
-1.5967197
-1.5967197
-1.5967197
-1.5967197
-1.5967197
-1.5967197
-1.5967197
-1.5967197
-1.5967197
-1.5967197
-1.5967197
-1.5967197
-1.5967197
-1.5967197
-1.5967197
-1.5967197
-1.5967197
-1.5967197
-1.5967197
-1.5967197
-1.5967197
-1.5967197
-1.5967197
-1.5967197
-1.5967197
-1.5967197
-1.609849923
-1.609849923
-1.609849923
-1.609849923
-1.609849923
-1.609849923
-1.609849923
-1.609849923
-1.609849923
-1.609849923
-1.609849923
-1.609849923
-1.609849923
-1.609849923
-1.609849923
-1.609849923
-1.609849923
-1.609849923
-1.609849923
-1.609849923
-1.609849923
-1.609849923
-1.609849923
-1.609849923
-1.609849923
-1.609849923
-1.609849923
-1.609849923
-1.609849923
-1.609849923
-1.609849923
-1.609849923
-1.609849923
-1.609849923
-1.609849923
-1.609849923
-1.609849923
-1.609849923
-1.609849923
-1.609849923
-1.609849923
-1.609849923
-1.609849923
-1.609849923
-1.609849923
-1.609849923
-1.609849923
-1.609849923
-1.609849923
-1.609849923
-1.623098091
-1.623098091
-1.623098091
-1.623098091
-1.623098091
-1.623098091
-1.623098091
-1.623098091
-1.623098091
-1.623098091
-1.623098091
-1.623098091
-1.623098091
-1.623098091
-1.623098091
-1.623098091
-1.623098091
-1.623098091
-1.623098091
-1.623098091
-1.623098091
-1.623098091
-1.623098091
-1.623098091
-1.623098091
-1.623098091
-1.623098091
-1.623098091
-1.623098091
-1.623098091
-1.623098091
-1.623098091
-1.623098091
-1.623098091
-1.623098091
-1.623098091
-1.623098091
-1.623098091
-1.623098091
-1.623098091
-1.623098091
-1.623098091
-1.623098091
-1.623098091
-1.623098091
-1.623098091
-1.623098091
-1.623098091
-1.623098091
-1.623098091
-1.636465404
-1.636465404
-1.636465404
-1.636465404
-1.636465404
-1.636465404
-1.636465404
-1.636465404
-1.636465404
-1.636465404
-1.636465404
-1.636465404
-1.636465404
-1.636465404
-1.636465404
-1.636465404
-1.636465404
-1.636465404
-1.636465404
-1.636465404
-1.636465404
-1.636465404
-1.636465404
-1.636465404
-1.636465404
-1.636465404
-1.636465404
-1.636465404
-1.636465404
-1.636465404
-1.636465404
-1.636465404
-1.636465404
-1.636465404
-1.636465404
-1.636465404
-1.636465404
-1.636465404
-1.636465404
-1.636465404
-1.636465404
-1.636465404
-1.636465404
-1.636465404
-1.636465404
-1.636465404
-1.636465404
-1.636465404
-1.636465404
-1.636465404
-1.649953071
-1.649953071
-1.649953071
-1.649953071
-1.649953071
-1.649953071
-1.649953071
-1.649953071
-1.649953071
-1.649953071
-1.649953071
-1.649953071
-1.649953071
-1.649953071
-1.649953071
-1.649953071
-1.649953071
-1.649953071
-1.649953071
-1.649953071
-1.649953071
-1.649953071
-1.649953071
-1.649953071
-1.649953071
-1.649953071
-1.649953071
-1.649953071
-1.649953071
-1.649953071
-1.649953071
-1.649953071
-1.649953071
-1.649953071
-1.649953071
-1.649953071
-1.649953071
-1.649953071
-1.649953071
-1.649953071
-1.649953071
-1.649953071
-1.649953071
-1.649953071
-1.649953071
-1.649953071
-1.649953071
-1.649953071
-1.649953071
-1.649953071
-1.663562315
-1.663562315
-1.663562315
-1.663562315
-1.663562315
-1.663562315
-1.663562315
-1.663562315
-1.663562315
-1.663562315
-1.663562315
-1.663562315
-1.663562315
-1.663562315
-1.663562315
-1.663562315
-1.663562315
-1.663562315
-1.663562315
-1.663562315
-1.663562315
-1.663562315
-1.663562315
-1.663562315
-1.663562315
-1.663562315
-1.663562315
-1.663562315
-1.663562315
-1.663562315
-1.663562315
-1.663562315
-1.663562315
-1.663562315
-1.663562315
-1.663562315
-1.663562315
-1.663562315
-1.663562315
-1.663562315
-1.663562315
-1.663562315
-1.663562315
-1.663562315
-1.663562315
-1.663562315
-1.663562315
-1.663562315
-1.663562315
-1.663562315
-1.677294375
-1.677294375
-1.677294375
-1.677294375
-1.677294375
-1.677294375
-1.677294375
-1.677294375
-1.677294375
-1.677294375
-1.677294375
-1.677294375
-1.677294375
-1.677294375
-1.677294375
-1.677294375
-1.677294375
-1.677294375
-1.677294375
-1.677294375
-1.677294375
-1.677294375
-1.677294375
-1.677294375
-1.677294375
-1.677294375
-1.677294375
-1.677294375
-1.677294375
-1.677294375
-1.677294375
-1.677294375
-1.677294375
-1.677294375
-1.677294375
-1.677294375
-1.677294375
-1.677294375
-1.677294375
-1.677294375
-1.677294375
-1.677294375
-1.677294375
-1.677294375
-1.677294375
-1.677294375
-1.677294375
-1.677294375
-1.677294375
-1.677294375
-1.691150506
-1.691150506
-1.691150506
-1.691150506
-1.691150506
-1.691150506
-1.691150506
-1.691150506
-1.691150506
-1.691150506
-1.691150506
-1.691150506
-1.691150506
-1.691150506
-1.691150506
-1.691150506
-1.691150506
-1.691150506
-1.691150506
-1.691150506
-1.691150506
-1.691150506
-1.691150506
-1.691150506
-1.691150506
-1.691150506
-1.691150506
-1.691150506
-1.691150506
-1.691150506
-1.691150506
-1.691150506
-1.691150506
-1.691150506
-1.691150506
-1.691150506
-1.691150506
-1.691150506
-1.691150506
-1.691150506
-1.691150506
-1.691150506
-1.691150506
-1.691150506
-1.691150506
-1.691150506
-1.691150506
-1.691150506
-1.691150506
-1.691150506
-1.705131966
-1.705131966
-1.705131966
-1.705131966
-1.705131966
-1.705131966
-1.705131966
-1.705131966
-1.705131966
-1.705131966
-1.705131966
-1.705131966
-1.705131966
-1.705131966
-1.705131966
-1.705131966
-1.705131966
-1.705131966
-1.705131966
-1.705131966
-1.705131966
-1.705131966
-1.705131966
-1.705131966
-1.705131966
-1.705131966
-1.705131966
-1.705131966
-1.705131966
-1.705131966
-1.705131966
-1.705131966
-1.705131966
-1.705131966
-1.705131966
-1.705131966
-1.705131966
-1.705131966
-1.705131966
-1.705131966
-1.705131966
-1.705131966
-1.705131966
-1.705131966
-1.705131966
-1.705131966
-1.705131966
-1.705131966
-1.705131966
-1.705131966
-1.719240042
-1.719240042
-1.719240042
-1.719240042
-1.719240042
-1.719240042
-1.719240042
-1.719240042
-1.719240042
-1.719240042
-1.719240042
-1.719240042
-1.719240042
-1.719240042
-1.719240042
-1.719240042
-1.719240042
-1.719240042
-1.719240042
-1.719240042
-1.719240042
-1.719240042
-1.719240042
-1.719240042
-1.719240042
-1.719240042
-1.719240042
-1.719240042
-1.719240042
-1.719240042
-1.719240042
-1.719240042
-1.719240042
-1.719240042
-1.719240042
-1.719240042
-1.719240042
-1.719240042
-1.719240042
-1.719240042
-1.719240042
-1.719240042
-1.719240042
-1.719240042
-1.719240042
-1.719240042
-1.719240042
-1.719240042
-1.719240042
-1.719240042
-1.733476028
-1.733476028
-1.733476028
-1.733476028
-1.733476028
-1.733476028
-1.733476028
-1.733476028
-1.733476028
-1.733476028
-1.733476028
-1.733476028
-1.733476028
-1.733476028
-1.733476028
-1.733476028
-1.733476028
-1.733476028
-1.733476028
-1.733476028
-1.733476028
-1.733476028
-1.733476028
-1.733476028
-1.733476028
-1.733476028
-1.733476028
-1.733476028
-1.733476028
-1.733476028
-1.733476028
-1.733476028
-1.733476028
-1.733476028
-1.733476028
-1.733476028
-1.733476028
-1.733476028
-1.733476028
-1.733476028
-1.733476028
-1.733476028
-1.733476028
-1.733476028
-1.733476028
-1.733476028
-1.733476028
-1.733476028
-1.733476028
-1.733476028
-1.747841237
-1.747841237
-1.747841237
-1.747841237
-1.747841237
-1.747841237
-1.747841237
-1.747841237
-1.747841237
-1.747841237
-1.747841237
-1.747841237
-1.747841237
-1.747841237
-1.747841237
-1.747841237
-1.747841237
-1.747841237
-1.747841237
-1.747841237
-1.747841237
-1.747841237
-1.747841237
-1.747841237
-1.747841237
-1.747841237
-1.747841237
-1.747841237
-1.747841237
-1.747841237
-1.747841237
-1.747841237
-1.747841237
-1.747841237
-1.747841237
-1.747841237
-1.747841237
-1.747841237
-1.747841237
-1.747841237
-1.747841237
-1.747841237
-1.747841237
-1.747841237
-1.747841237
-1.747841237
-1.747841237
-1.747841237
-1.747841237
-1.747841237
-1.762336995
-1.762336995
-1.762336995
-1.762336995
-1.762336995
-1.762336995
-1.762336995
-1.762336995
-1.762336995
-1.762336995
-1.762336995
-1.762336995
-1.762336995
-1.762336995
-1.762336995
-1.762336995
-1.762336995
-1.762336995
-1.762336995
-1.762336995
-1.762336995
-1.762336995
-1.762336995
-1.762336995
-1.762336995
-1.762336995
-1.762336995
-1.762336995
-1.762336995
-1.762336995
-1.762336995
-1.762336995
-1.762336995
-1.762336995
-1.762336995
-1.762336995
-1.762336995
-1.762336995
-1.762336995
-1.762336995
-1.762336995
-1.762336995
-1.762336995
-1.762336995
-1.762336995
-1.762336995
-1.762336995
-1.762336995
-1.762336995
-1.762336995
-1.776964644
-1.776964644
-1.776964644
-1.776964644
-1.776964644
-1.776964644
-1.776964644
-1.776964644
-1.776964644
-1.776964644
-1.776964644
-1.776964644
-1.776964644
-1.776964644
-1.776964644
-1.776964644
-1.776964644
-1.776964644
-1.776964644
-1.776964644
-1.776964644
-1.776964644
-1.776964644
-1.776964644
-1.776964644
-1.776964644
-1.776964644
-1.776964644
-1.776964644
-1.776964644
-1.776964644
-1.776964644
-1.776964644
-1.776964644
-1.776964644
-1.776964644
-1.776964644
-1.776964644
-1.776964644
-1.776964644
-1.776964644
-1.776964644
-1.776964644
-1.776964644
-1.776964644
-1.776964644
-1.776964644
-1.776964644
-1.776964644
-1.776964644
-1.791725547
-1.791725547
-1.791725547
-1.791725547
-1.791725547
-1.791725547
-1.791725547
-1.791725547
-1.791725547
-1.791725547
-1.791725547
-1.791725547
-1.791725547
-1.791725547
-1.791725547
-1.791725547
-1.791725547
-1.791725547
-1.791725547
-1.791725547
-1.791725547
-1.791725547
-1.791725547
-1.791725547
-1.791725547
-1.791725547
-1.791725547
-1.791725547
-1.791725547
-1.791725547
-1.791725547
-1.791725547
-1.791725547
-1.791725547
-1.791725547
-1.791725547
-1.791725547
-1.791725547
-1.791725547
-1.791725547
-1.791725547
-1.791725547
-1.791725547
-1.791725547
-1.791725547
-1.791725547
-1.791725547
-1.791725547
-1.791725547
-1.791725547
-1.806621069
-1.806621069
-1.806621069
-1.806621069
-1.806621069
-1.806621069
-1.806621069
-1.806621069
-1.806621069
-1.806621069
-1.806621069
-1.806621069
-1.806621069
-1.806621069
-1.806621069
-1.806621069
-1.806621069
-1.806621069
-1.806621069
-1.806621069
-1.806621069
-1.806621069
-1.806621069
-1.806621069
-1.806621069
-1.806621069
-1.806621069
-1.806621069
-1.806621069
-1.806621069
-1.806621069
-1.806621069
-1.806621069
-1.806621069
-1.806621069
-1.806621069
-1.806621069
-1.806621069
-1.806621069
-1.806621069
-1.806621069
-1.806621069
-1.806621069
-1.806621069
-1.806621069
-1.806621069
-1.806621069
-1.806621069
-1.806621069
-1.806621069
-1.821652605
-1.821652605
-1.821652605
-1.821652605
-1.821652605
-1.821652605
-1.821652605
-1.821652605
-1.821652605
-1.821652605
-1.821652605
-1.821652605
-1.821652605
-1.821652605
-1.821652605
-1.821652605
-1.821652605
-1.821652605
-1.821652605
-1.821652605
-1.821652605
-1.821652605
-1.821652605
-1.821652605
-1.821652605
-1.821652605
-1.821652605
-1.821652605
-1.821652605
-1.821652605
-1.821652605
-1.821652605
-1.821652605
-1.821652605
-1.821652605
-1.821652605
-1.821652605
-1.821652605
-1.821652605
-1.821652605
-1.821652605
-1.821652605
-1.821652605
-1.821652605
-1.821652605
-1.821652605
-1.821652605
-1.821652605
-1.821652605
-1.821652605
-1.83682156
-1.83682156
-1.83682156
-1.83682156
-1.83682156
-1.83682156
-1.83682156
-1.83682156
-1.83682156
-1.83682156
-1.83682156
-1.83682156
-1.83682156
-1.83682156
-1.83682156
-1.83682156
-1.83682156
-1.83682156
-1.83682156
-1.83682156
-1.83682156
-1.83682156
-1.83682156
-1.83682156
-1.83682156
-1.83682156
-1.83682156
-1.83682156
-1.83682156
-1.83682156
-1.83682156
-1.83682156
-1.83682156
-1.83682156
-1.83682156
-1.83682156
-1.83682156
-1.83682156
-1.83682156
-1.83682156
-1.83682156
-1.83682156
-1.83682156
-1.83682156
-1.83682156
-1.83682156
-1.83682156
-1.83682156
-1.83682156
-1.83682156
-1.852129358
-1.852129358
-1.852129358
-1.852129358
-1.852129358
-1.852129358
-1.852129358
-1.852129358
-1.852129358
-1.852129358
-1.852129358
-1.852129358
-1.852129358
-1.852129358
-1.852129358
-1.852129358
-1.852129358
-1.852129358
-1.852129358
-1.852129358
-1.852129358
-1.852129358
-1.852129358
-1.852129358
-1.852129358
-1.852129358
-1.852129358
-1.852129358
-1.852129358
-1.852129358
-1.852129358
-1.852129358
-1.852129358
-1.852129358
-1.852129358
-1.852129358
-1.852129358
-1.852129358
-1.852129358
-1.852129358
-1.852129358
-1.852129358
-1.852129358
-1.852129358
-1.852129358
-1.852129358
-1.852129358
-1.852129358
-1.852129358
-1.852129358
-1.867577439
-1.867577439
-1.867577439
-1.867577439
-1.867577439
-1.867577439
-1.867577439
-1.867577439
-1.867577439
-1.867577439
-1.867577439
-1.867577439
-1.867577439
-1.867577439
-1.867577439
-1.867577439
-1.867577439
-1.867577439
-1.867577439
-1.867577439
-1.867577439
-1.867577439
-1.867577439
-1.867577439
-1.867577439
-1.867577439
-1.867577439
-1.867577439
-1.867577439
-1.867577439
-1.867577439
-1.867577439
-1.867577439
-1.867577439
-1.867577439
-1.867577439
-1.867577439
-1.867577439
-1.867577439
-1.867577439
-1.867577439
-1.867577439
-1.867577439
-1.867577439
-1.867577439
-1.867577439
-1.867577439
-1.867577439
-1.867577439
-1.867577439
-1.88316726
-1.88316726
-1.88316726
-1.88316726
-1.88316726
-1.88316726
-1.88316726
-1.88316726
-1.88316726
-1.88316726
-1.88316726
-1.88316726
-1.88316726
-1.88316726
-1.88316726
-1.88316726
-1.88316726
-1.88316726
-1.88316726
-1.88316726
-1.88316726
-1.88316726
-1.88316726
-1.88316726
-1.88316726
-1.88316726
-1.88316726
-1.88316726
-1.88316726
-1.88316726
-1.88316726
-1.88316726
-1.88316726
-1.88316726
-1.88316726
-1.88316726
-1.88316726
-1.88316726
-1.88316726
-1.88316726
-1.88316726
-1.88316726
-1.88316726
-1.88316726
-1.88316726
-1.88316726
-1.88316726
-1.88316726
-1.88316726
-1.88316726
-1.898900301
-1.898900301
-1.898900301
-1.898900301
-1.898900301
-1.898900301
-1.898900301
-1.898900301
-1.898900301
-1.898900301
-1.898900301
-1.898900301
-1.898900301
-1.898900301
-1.898900301
-1.898900301
-1.898900301
-1.898900301
-1.898900301
-1.898900301
-1.898900301
-1.898900301
-1.898900301
-1.898900301
-1.898900301
-1.898900301
-1.898900301
-1.898900301
-1.898900301
-1.898900301
-1.898900301
-1.898900301
-1.898900301
-1.898900301
-1.898900301
-1.898900301
-1.898900301
-1.898900301
-1.898900301
-1.898900301
-1.898900301
-1.898900301
-1.898900301
-1.898900301
-1.898900301
-1.898900301
-1.898900301
-1.898900301
-1.898900301
-1.898900301
-1.914778042
-1.914778042
-1.914778042
-1.914778042
-1.914778042
-1.914778042
-1.914778042
-1.914778042
-1.914778042
-1.914778042
-1.914778042
-1.914778042
-1.914778042
-1.914778042
-1.914778042