/*--------------------------------*- C++ -*----------------------------------*\
| =========                 |                                                 |
| \\      /  F ield         | OpenFOAM: The Open Source CFD Toolbox           |
|  \\    /   O peration     | Version:  5.x                                   |
|   \\  /    A nd           | Web:      www.OpenFOAM.org                      |
|    \\/     M anipulation  |                                                 |
\*---------------------------------------------------------------------------*/
FoamFile
{
    version     2.0;
    format      ascii;
    class       volScalarField;
    location    "0.004";
    object      pSat;
}
// * * * * * * * * * * * * * * * * * * * * * * * * * * * * * * * * * * * * * //

dimensions      [1 -1 -2 0 0 0 0];

internalField   nonuniform List<scalar> 
7950
(
57.64990198
57.65006295
57.65041829
57.65096
57.6516894
57.65261052
57.6537267
57.65504396
57.65656967
57.65831052
57.66027722
57.66247913
57.66492971
57.6676409
57.67062814
57.67390953
57.67750381
57.68143176
57.68571683
57.69038583
57.69546757
57.70099425
57.70700281
57.71353138
57.72062564
57.72833394
57.73671067
57.7458163
57.75571811
57.76648994
57.77821396
57.79098306
57.80489897
57.82007501
57.8366379
57.85472813
57.87450258
57.896137
57.91982456
57.94578483
57.97425966
58.00552093
58.03987187
58.07765287
58.11924406
58.16507026
58.21560945
58.27139609
58.33303159
58.40119024
56.02340635
56.02364523
56.02417181
56.02497309
56.02604842
56.02739912
56.0290278
56.0309371
56.0331303
56.03561263
56.03838869
56.04146373
56.04484299
56.04853369
56.05254306
56.05687831
56.06154792
56.06656055
56.07192535
56.07765153
56.08375026
56.09023143
56.09710688
56.10438718
56.11208415
56.12021043
56.12877723
56.13779777
56.14728268
56.15724456
56.16769469
56.17864385
56.1901014
56.20207609
56.21457535
56.22760354
56.24116352
56.255255
56.26987371
56.28501098
56.30065339
56.3167804
56.33336491
56.35036926
56.36774614
56.38543753
56.40336839
56.42144785
56.43956596
56.45758969
54.32355042
54.32372704
54.324117
54.32470954
54.32550276
54.32649732
54.32769258
54.32908793
54.33068528
54.33248337
54.3344835
54.33668568
54.33909056
54.34169818
54.34450856
54.34752241
54.35073902
54.35415975
54.35778399
54.36161116
54.36564066
54.36987252
54.37430489
54.37893718
54.38376816
54.38879473
54.39401565
54.39942718
54.40502556
54.41080831
54.41676915
54.42290373
54.42920504
54.43566682
54.44228027
54.44903717
54.45592679
54.46293902
54.47006059
54.47727883
54.48457854
54.49194389
54.49935712
54.50680047
54.51425363
54.52169564
54.52910427
54.53645663
54.54372919
54.55089715
52.5854092
52.58551309
52.58574115
52.58608786
52.58655138
52.58713169
52.58782821
52.58863969
52.58956553
52.59060574
52.59175908
52.59302435
52.59440092
52.59588759
52.59748312
52.59918568
52.60099529
52.60290825
52.60492459
52.60704124
52.60925636
52.6115675
52.61397284
52.6164693
52.61905445
52.62172459
52.62447667
52.62730762
52.63021315
52.63318957
52.63623321
52.63933854
52.64250188
52.64571769
52.64898169
52.6522871
52.65562901
52.65900188
52.66239834
52.66581352
52.66923993
52.67267147
52.67610013
52.67952037
52.68292356
52.68630295
52.68965173
52.69296247
52.69622788
52.6994405
50.84792097
50.84797584
50.8480963
50.84827938
50.84852389
50.84882983
50.849196
50.8496224
50.85010905
50.85065414
50.85125769
50.85191909
50.85263656
50.85341011
50.85423853
50.85512065
50.85605527
50.8570412
50.85807665
50.85916103
50.86029196
50.86146825
50.8626887
50.86395094
50.86525317
50.86659361
50.86797047
50.86938138
50.87082394
50.87229577
50.87379568
50.87532009
50.87686662
50.87843348
50.88001709
50.88161566
50.88322562
50.88484517
50.88647073
50.88809933
50.88972857
50.89135546
50.89297704
50.89458966
50.89619163
50.89777932
50.89934974
50.90090051
50.90242864
50.90393115
49.13621783
49.136245
49.13630571
49.13639765
49.1365208
49.13667402
49.13685789
49.1370724
49.13731641
49.13758932
49.13789172
49.13822246
49.13858096
49.13896721
49.13938064
49.13981952
49.14028442
49.14077418
49.14128824
49.14182486
49.14238461
49.14296577
49.14356717
49.14418881
49.14482839
49.14548648
49.1461602
49.14685012
49.1475545
49.14827161
49.14900088
49.14974115
49.15049126
49.1512489
49.15201406
49.1527856
49.15356062
49.1543397
49.15511995
49.15590137
49.15668164
49.15745961
49.1582347
49.15900459
49.15976871
49.16052532
49.16127384
49.16201196
49.1627391
49.1634541
47.46355129
47.46356474
47.46359444
47.46363983
47.46370035
47.46377544
47.46386623
47.46397102
47.46409094
47.46422487
47.46437338
47.46453533
47.46471129
47.46490015
47.46510245
47.46531765
47.46554461
47.4657839
47.46603496
47.46629724
47.4665696
47.46685317
47.46714571
47.46744834
47.46775937
47.46807882
47.46840611
47.46874069
47.469082
47.46942947
47.469782
47.47014012
47.47050218
47.47086816
47.4712375
47.47160909
47.47198293
47.47235788
47.4727334
47.47310893
47.47348389
47.47385774
47.47422991
47.47459928
47.47496585
47.47532906
47.47568778
47.47604147
47.47639011
47.47673259
45.83601947
45.83602653
45.83604065
45.83606291
45.83609223
45.83612861
45.8361726
45.83622364
45.83628174
45.8363469
45.83641912
45.83649785
45.8365831
45.83667541
45.83677315
45.83687741
45.83698764
45.83710384
45.83722547
45.83735253
45.83748503
45.83762186
45.83776359
45.8379102
45.83806062
45.83821538
45.83837339
45.83853521
45.83869975
45.83886754
45.83903805
45.83921073
45.83938559
45.83956207
45.83974018
45.83991938
45.84009913
45.84027996
45.84046079
45.84064162
45.84082246
45.8410022
45.84118087
45.84135899
45.84153493
45.8417098
45.84188194
45.84205246
45.84221972
45.84238481
44.25593691
44.25594006
44.25594743
44.25595795
44.25597215
44.25599004
44.25601108
44.2560358
44.25606368
44.25609525
44.25613049
44.25616837
44.25620993
44.25625411
44.25630146
44.25635196
44.25640509
44.25646138
44.2565203
44.25658132
44.2566455
44.25671178
44.25678017
44.25685066
44.25692325
44.25699795
44.25707423
44.25715262
44.25723205
44.25731306
44.25739513
44.25747825
44.25756242
44.25764764
44.25773339
44.25781966
44.25790646
44.25799379
44.25808059
44.25816792
44.25825472
44.25834152
44.2584278
44.25851355
44.25859825
44.25868242
44.25876554
44.25884708
44.2589281
44.25900701
42.72372447
42.723726
42.72372905
42.72373415
42.72374128
42.72374995
42.72376014
42.72377186
42.72378562
42.7238009
42.72381772
42.72383606
42.72385593
42.72387734
42.72390027
42.72392472
42.7239502
42.72397721
42.72400574
42.7240353
42.72406587
42.72409798
42.7241311
42.72416524
42.7242004
42.72423607
42.72427326
42.72431046
42.72434919
42.72438792
42.72442766
42.72446792
42.72450817
42.72454945
42.72459072
42.72463251
42.72467429
42.72471608
42.72475786
42.72480015
42.72484194
42.72488372
42.724925
42.72496627
42.72500755
42.72504781
42.72508806
42.7251273
42.72516603
42.72520424
41.23889021
41.2388912
41.23889268
41.23889515
41.2388986
41.23890255
41.23890749
41.23891341
41.23891983
41.23892723
41.23893512
41.23894401
41.23895388
41.23896424
41.2389751
41.23898694
41.23899928
41.23901211
41.23902593
41.23904024
41.23905505
41.23907035
41.23908614
41.23910292
41.2391197
41.23913697
41.23915474
41.239173
41.23919126
41.23921002
41.23922926
41.23924851
41.23926825
41.23928799
41.23930773
41.23932797
41.2393482
41.23936844
41.23938818
41.23940841
41.23942865
41.23944888
41.23946912
41.23948886
41.2395086
41.23952785
41.23954709
41.23956634
41.23958509
41.23960336
39.80051525
39.80051573
39.80051668
39.80051764
39.80051907
39.80052146
39.80052385
39.80052624
39.80052959
39.80053293
39.80053675
39.80054106
39.80054583
39.80055109
39.80055635
39.80056161
39.80056782
39.80057403
39.80058072
39.80058741
39.80059458
39.80060223
39.80060988
39.80061752
39.80062565
39.80063425
39.80064285
39.80065146
39.80066054
39.80066962
39.8006787
39.80068778
39.80069734
39.8007069
39.80071646
39.80072601
39.80073605
39.80074561
39.80075517
39.8007652
39.80077476
39.80078432
39.80079388
39.80080392
39.800813
39.80082256
39.80083164
39.8008412
39.8008498
39.80085888
38.40749014
38.40749014
38.4074906
38.40749106
38.40749199
38.40749291
38.4074943
38.40749523
38.40749708
38.40749846
38.40750032
38.40750263
38.40750494
38.40750726
38.40750957
38.40751235
38.40751559
38.40751836
38.4075216
38.40752484
38.40752855
38.40753178
38.40753549
38.40753919
38.40754335
38.40754752
38.40755168
38.40755585
38.40756001
38.40756418
38.40756881
38.40757343
38.4075776
38.40758223
38.40758685
38.40759148
38.40759611
38.4076012
38.40760583
38.40761046
38.40761508
38.40761971
38.40762434
38.40762897
38.4076336
38.40763822
38.40764239
38.40764702
38.40765118
38.40765535
37.05862913
37.05862913
37.05862913
37.05862958
37.05863003
37.05863048
37.05863093
37.05863182
37.05863227
37.05863317
37.05863406
37.05863496
37.0586363
37.0586372
37.05863854
37.05863989
37.05864123
37.05864257
37.05864437
37.05864571
37.0586475
37.0586493
37.05865109
37.05865288
37.05865467
37.05865646
37.0586587
37.0586605
37.05866274
37.05866498
37.05866677
37.05866901
37.05867125
37.05867349
37.05867573
37.05867797
37.05868021
37.05868245
37.05868469
37.05868693
37.05868917
37.05869141
37.05869365
37.05869589
37.05869813
37.05870037
37.05870261
37.05870441
37.05870665
37.05870889
35.75272648
35.75272648
35.75272692
35.75272692
35.75272692
35.75272735
35.75272735
35.75272779
35.75272822
35.75272865
35.75272909
35.75272952
35.75272995
35.75273039
35.75273126
35.75273169
35.75273256
35.75273299
35.75273386
35.75273473
35.75273559
35.75273646
35.75273733
35.7527382
35.75273906
35.75273993
35.7527408
35.75274167
35.75274297
35.75274383
35.7527447
35.752746
35.75274687
35.75274817
35.75274904
35.75275034
35.75275121
35.75275251
35.75275338
35.75275468
35.75275555
35.75275685
35.75275771
35.75275902
35.75275988
35.75276118
35.75276205
35.75276292
35.75276422
35.75276509
34.48858261
34.48858261
34.48858261
34.48858261
34.48858303
34.48858303
34.48858303
34.48858345
34.48858345
34.48858345
34.48858387
34.48858429
34.48858429
34.48858471
34.48858471
34.48858513
34.48858555
34.48858597
34.48858639
34.48858639
34.48858681
34.48858723
34.48858765
34.48858807
34.48858849
34.48858891
34.48858975
34.48859017
34.48859059
34.48859101
34.48859143
34.48859185
34.48859269
34.48859311
34.48859353
34.48859395
34.48859479
34.48859521
34.48859563
34.48859605
34.48859689
34.48859731
34.48859773
34.48859815
34.48859899
34.48859941
34.48859983
34.48860025
34.48860067
34.48860109
33.26501548
33.26501548
33.26501548
33.26501589
33.26501589
33.26501589
33.26501589
33.26501589
33.26501589
33.26501629
33.26501629
33.26501629
33.26501629
33.2650167
33.2650167
33.2650167
33.26501711
33.26501711
33.26501751
33.26501751
33.26501792
33.26501792
33.26501792
33.26501833
33.26501873
33.26501873
33.26501914
33.26501914
33.26501955
33.26501955
33.26501995
33.26502036
33.26502036
33.26502076
33.26502076
33.26502117
33.26502158
33.26502158
33.26502198
33.26502198
33.26502239
33.2650228
33.2650228
33.2650232
33.26502361
33.26502361
33.26502402
33.26502442
33.26502442
33.26502483
32.08086737
32.08086737
32.08086737
32.08086737
32.08086737
32.08086776
32.08086776
32.08086776
32.08086776
32.08086776
32.08086776
32.08086776
32.08086776
32.08086776
32.08086816
32.08086816
32.08086816
32.08086816
32.08086816
32.08086855
32.08086855
32.08086855
32.08086855
32.08086894
32.08086894
32.08086894
32.08086894
32.08086934
32.08086934
32.08086934
32.08086934
32.08086973
32.08086973
32.08086973
32.08087012
32.08087012
32.08087012
32.08087052
32.08087052
32.08087052
32.08087052
32.08087091
32.08087091
32.08087091
32.0808713
32.0808713
32.0808713
32.0808713
32.0808717
32.0808717
30.93500675
30.93500675
30.93500675
30.93500675
30.93500675
30.93500675
30.93500675
30.93500675
30.93500675
30.93500675
30.93500675
30.93500675
30.93500675
30.93500675
30.93500675
30.93500675
30.93500713
30.93500713
30.93500713
30.93500713
30.93500713
30.93500713
30.93500713
30.93500713
30.93500713
30.93500751
30.93500751
30.93500751
30.93500751
30.93500751
30.93500751
30.93500751
30.93500789
30.93500789
30.93500789
30.93500789
30.93500789
30.93500789
30.93500789
30.93500827
30.93500827
30.93500827
30.93500827
30.93500827
30.93500827
30.93500827
30.93500865
30.93500865
30.93500865
30.93500865
29.82632836
29.82632836
29.82632836
29.82632836
29.82632836
29.82632836
29.82632836
29.82632836
29.82632836
29.82632836
29.82632873
29.82632873
29.82632873
29.82632873
29.82632873
29.82632873
29.82632873
29.82632873
29.82632873
29.82632873
29.82632873
29.82632873
29.82632873
29.82632873
29.82632873
29.82632873
29.82632873
29.82632873
29.82632873
29.82632909
29.82632909
29.82632909
29.82632909
29.82632909
29.82632909
29.82632909
29.82632909
29.82632909
29.82632909
29.82632909
29.82632909
29.82632909
29.82632909
29.82632946
29.82632946
29.82632946
29.82632946
29.82632946
29.82632946
29.82632946
28.75375568
28.75375568
28.75375568
28.75375568
28.75375568
28.75375568
28.75375568
28.75375568
28.75375568
28.75375568
28.75375568
28.75375568
28.75375568
28.75375568
28.75375568
28.75375568
28.75375568
28.75375568
28.75375568
28.75375568
28.75375568
28.75375568
28.75375568
28.75375568
28.75375568
28.75375568
28.75375568
28.75375568
28.75375568
28.75375568
28.75375568
28.75375568
28.75375568
28.75375568
28.75375568
28.75375568
28.75375604
28.75375604
28.75375604
28.75375604
28.75375604
28.75375604
28.75375604
28.75375604
28.75375604
28.75375604
28.75375604
28.75375604
28.75375604
28.75375604
27.71623729
27.71623729
27.71623729
27.71623729
27.71623729
27.71623729
27.71623729
27.71623729
27.71623729
27.71623729
27.71623729
27.71623729
27.71623729
27.71623729
27.71623729
27.71623729
27.71623729
27.71623729
27.71623729
27.71623729
27.71623729
27.71623729
27.71623729
27.71623729
27.71623729
27.71623729
27.71623763
27.71623763
27.71623763
27.71623763
27.71623763
27.71623763
27.71623763
27.71623763
27.71623763
27.71623763
27.71623763
27.71623763
27.71623763
27.71623763
27.71623763
27.71623763
27.71623763
27.71623763
27.71623763
27.71623763
27.71623763
27.71623763
27.71623763
27.71623763
26.71274983
26.71274983
26.71274983
26.71274983
26.71274983
26.71274983
26.71274983
26.71274983
26.71274983
26.71274983
26.71274983
26.71274983
26.71274983
26.71274983
26.71275016
26.71275016
26.71275016
26.71275016
26.71275016
26.71275016
26.71275016
26.71275016
26.71275016
26.71275016
26.71275016
26.71275016
26.71275016
26.71275016
26.71275016
26.71275016
26.71275016
26.71275016
26.71275016
26.71275016
26.71275016
26.71275016
26.71275016
26.71275016
26.71275016
26.71275016
26.71275016
26.71275016
26.71275016
26.71275016
26.71275016
26.71275016
26.71275016
26.71275016
26.71275016
26.71275016
25.74229524
25.74229524
25.74229524
25.74229524
25.74229524
25.74229524
25.74229524
25.74229524
25.74229524
25.74229524
25.74229524
25.74229524
25.74229524
25.74229524
25.74229524
25.74229524
25.74229524
25.74229524
25.74229524
25.74229524
25.74229524
25.74229524
25.74229556
25.74229556
25.74229556
25.74229556
25.74229556
25.74229556
25.74229556
25.74229556
25.74229556
25.74229556
25.74229556
25.74229556
25.74229556
25.74229556
25.74229556
25.74229556
25.74229556
25.74229556
25.74229556
25.74229556
25.74229556
25.74229556
25.74229556
25.74229556
25.74229556
25.74229556
25.74229556
25.74229556
24.80390112
24.80390112
24.80390112
24.80390112
24.80390112
24.80390112
24.80390112
24.80390112
24.80390112
24.80390112
24.80390112
24.80390112
24.80390112
24.80390112
24.80390112
24.80390112
24.80390112
24.80390112
24.80390112
24.80390112
24.80390112
24.80390112
24.80390112
24.80390112
24.80390112
24.80390112
24.80390112
24.80390112
24.80390112
24.80390112
24.80390112
24.80390112
24.80390112
24.80390112
24.80390112
24.80390112
24.80390112
24.80390112
24.80390112
24.80390112
24.80390112
24.80390112
24.80390112
24.80390112
24.80390112
24.80390112
24.80390112
24.80390112
24.80390112
24.80390112
23.89661995
23.89661995
23.89661995
23.89661995
23.89661995
23.89661995
23.89661995
23.89661995
23.89661995
23.89661995
23.89661995
23.89661995
23.89661995
23.89661995
23.89661995
23.89661995
23.89661995
23.89661995
23.89661995
23.89661995
23.89661995
23.89661995
23.89661995
23.89661995
23.89661995
23.89661995
23.89661995
23.89661995
23.89661995
23.89661995
23.89661995
23.89661995
23.89661995
23.89661995
23.89661995
23.89661995
23.89661995
23.89661995
23.89661995
23.89661995
23.89661995
23.89661995
23.89661995
23.89661995
23.89661995
23.89661995
23.89661995
23.89661995
23.89661995
23.89661995
23.01952876
23.01952876
23.01952876
23.01952876
23.01952876
23.01952876
23.01952876
23.01952876
23.01952876
23.01952876
23.01952876
23.01952876
23.01952876
23.01952876
23.01952876
23.01952876
23.01952876
23.01952876
23.01952876
23.01952876
23.01952876
23.01952876
23.01952876
23.01952876
23.01952876
23.01952876
23.01952876
23.01952876
23.01952876
23.01952876
23.01952876
23.01952876
23.01952876
23.01952876
23.01952876
23.01952876
23.01952876
23.01952876
23.01952876
23.01952876
23.01952876
23.01952876
23.01952876
23.01952876
23.01952876
23.01952876
23.01952876
23.01952876
23.01952876
23.01952876
22.17172842
22.17172842
22.17172842
22.17172842
22.17172842
22.17172842
22.17172842
22.17172842
22.17172842
22.17172842
22.17172842
22.17172842
22.17172842
22.17172842
22.17172842
22.17172842
22.17172842
22.17172842
22.17172842
22.17172842
22.17172842
22.17172842
22.17172842
22.17172842
22.17172842
22.17172842
22.17172842
22.17172842
22.17172842
22.17172842
22.17172842
22.17172842
22.17172842
22.17172842
22.17172842
22.17172842
22.17172842
22.17172842
22.17172842
22.17172842
22.17172842
22.17172842
22.17172842
22.17172842
22.17172842
22.17172842
22.17172842
22.17172842
22.17172842
22.17172842
21.3523433
21.3523433
21.3523433
21.3523433
21.3523433
21.3523433
21.3523433
21.3523433
21.3523433
21.3523433
21.3523433
21.3523433
21.3523433
21.3523433
21.3523433
21.3523433
21.3523433
21.3523433
21.3523433
21.3523433
21.3523433
21.3523433
21.3523433
21.3523433
21.3523433
21.3523433
21.3523433
21.3523433
21.3523433
21.3523433
21.3523433
21.3523433
21.3523433
21.3523433
21.3523433
21.3523433
21.3523433
21.3523433
21.3523433
21.3523433
21.3523433
21.3523433
21.3523433
21.3523433
21.3523433
21.3523433
21.3523433
21.3523433
21.3523433
21.3523433
20.56052055
20.56052055
20.56052055
20.56052055
20.56052055
20.56052055
20.56052055
20.56052055
20.56052055
20.56052055
20.56052055
20.56052055
20.56052055
20.56052055
20.56052055
20.56052055
20.56052055
20.56052055
20.56052055
20.56052055
20.56052055
20.56052055
20.56052055
20.56052055
20.56052055
20.56052055
20.56052055
20.56052055
20.56052055
20.56052055
20.56052055
20.56052055
20.56052055
20.56052055
20.56052055
20.56052055
20.56052055
20.56052055
20.56052055
20.56052055
20.56052055
20.56052055
20.56052055
20.56052055
20.56052055
20.56052055
20.56052055
20.56052055
20.56052055
20.56052055
19.79542955
19.79542955
19.79542955
19.79542955
19.79542955
19.79542955
19.79542955
19.79542955
19.79542955
19.79542955
19.79542955
19.79542955
19.79542955
19.79542955
19.79542955
19.79542955
19.79542955
19.79542955
19.79542955
19.79542955
19.79542955
19.79542955
19.79542955
19.79542955
19.79542955
19.79542955
19.79542955
19.79542955
19.79542955
19.79542955
19.79542955
19.79542955
19.79542955
19.79542955
19.79542955
19.79542955
19.79542955
19.79542955
19.79542955
19.79542955
19.79542955
19.79542955
19.79542955
19.79542955
19.79542955
19.79542955
19.79542955
19.79542955
19.79542955
19.79542955
19.05626228
19.05626228
19.05626228
19.05626228
19.05626228
19.05626228
19.05626228
19.05626228
19.05626228
19.05626228
19.05626228
19.05626228
19.05626228
19.05626228
19.05626228
19.05626228
19.05626228
19.05626228
19.05626228
19.05626228
19.05626228
19.05626228
19.05626228
19.05626228
19.05626228
19.05626228
19.05626228
19.05626228
19.05626228
19.05626228
19.05626228
19.05626228
19.05626228
19.05626228
19.05626228
19.05626228
19.05626228
19.05626228
19.05626228
19.05626228
19.05626228
19.05626228
19.05626228
19.05626228
19.05626228
19.05626228
19.05626228
19.05626228
19.05626228
19.05626228
18.34223139
18.34223139
18.34223139
18.34223139
18.34223139
18.34223139
18.34223139
18.34223139
18.34223139
18.34223139
18.34223139
18.34223139
18.34223139
18.34223139
18.34223139
18.34223139
18.34223139
18.34223139
18.34223139
18.34223139
18.34223139
18.34223139
18.34223139
18.34223139
18.34223139
18.34223139
18.34223139
18.34223139
18.34223139
18.34223139
18.34223139
18.34223139
18.34223139
18.34223139
18.34223139
18.34223139
18.34223139
18.34223139
18.34223139
18.34223139
18.34223139
18.34223139
18.34223139
18.34223139
18.34223139
18.34223139
18.34223139
18.34223139
18.34223139
18.34223139
17.65257066
17.65257066
17.65257066
17.65257066
17.65257066
17.65257066
17.65257066
17.65257066
17.65257066
17.65257066
17.65257066
17.65257066
17.65257066
17.65257066
17.65257066
17.65257066
17.65257066
17.65257066
17.65257066
17.65257066
17.65257066
17.65257066
17.65257066
17.65257066
17.65257066
17.65257066
17.65257066
17.65257066
17.65257066
17.65257066
17.65257066
17.65257066
17.65257066
17.65257066
17.65257066
17.65257066
17.65257066
17.65257066
17.65257066
17.65257066
17.65257066
17.65257066
17.65257066
17.65257066
17.65257066
17.65257066
17.65257066
17.65257066
17.65257066
17.65257066
16.9865344
16.9865344
16.9865344
16.9865344
16.9865344
16.9865344
16.9865344
16.9865344
16.9865344
16.9865344
16.9865344
16.9865344
16.9865344
16.9865344
16.9865344
16.9865344
16.9865344
16.9865344
16.9865344
16.9865344
16.9865344
16.9865344
16.9865344
16.9865344
16.9865344
16.9865344
16.9865344
16.9865344
16.9865344
16.9865344
16.9865344
16.9865344
16.9865344
16.9865344
16.9865344
16.9865344
16.9865344
16.9865344
16.9865344
16.9865344
16.9865344
16.9865344
16.9865344
16.9865344
16.9865344
16.9865344
16.9865344
16.9865344
16.9865344
16.9865344
16.34339685
16.34339685
16.34339685
16.34339685
16.34339685
16.34339685
16.34339685
16.34339685
16.34339685
16.34339685
16.34339685
16.34339685
16.34339685
16.34339685
16.34339685
16.34339685
16.34339685
16.34339685
16.34339685
16.34339685
16.34339685
16.34339685
16.34339685
16.34339685
16.34339685
16.34339685
16.34339685
16.34339685
16.34339685
16.34339685
16.34339685
16.34339685
16.34339685
16.34339685
16.34339685
16.34339685
16.34339685
16.34339685
16.34339685
16.34339685
16.34339685
16.34339685
16.34339685
16.34339685
16.34339685
16.34339685
16.34339685
16.34339685
16.34339685
16.34339685
15.72245185
15.72245185
15.72245185
15.72245185
15.72245185
15.72245185
15.72245185
15.72245185
15.72245185
15.72245185
15.72245185
15.72245185
15.72245185
15.72245185
15.72245185
15.72245185
15.72245185
15.72245185
15.72245185
15.72245185
15.72245185
15.72245185
15.72245185
15.72245185
15.72245185
15.72245185
15.72245185
15.72245185
15.72245185
15.72245185
15.72245185
15.72245185
15.72245185
15.72245185
15.72245185
15.72245185
15.72245185
15.72245185
15.72245185
15.72245185
15.72245185
15.72245185
15.72245185
15.72245185
15.72245185
15.72245185
15.72245185
15.72245185
15.72245185
15.72245185
15.12301208
15.12301208
15.12301208
15.12301208
15.12301208
15.12301208
15.12301208
15.12301208
15.12301208
15.12301208
15.12301208
15.12301208
15.12301208
15.12301208
15.12301208
15.12301208
15.12301208
15.12301208
15.12301208
15.12301208
15.12301208
15.12301208
15.12301208
15.12301208
15.12301208
15.12301208
15.12301208
15.12301208
15.12301208
15.12301208
15.12301208
15.12301208
15.12301208
15.12301208
15.12301208
15.12301208
15.12301208
15.12301208
15.12301208
15.12301208
15.12301208
15.12301208
15.12301208
15.12301208
15.12301208
15.12301208
15.12301208
15.12301208
15.12301208
15.12301208
14.54440955
14.54440955
14.54440955
14.54440955
14.54440955
14.54440955
14.54440955
14.54440955
14.54440955
14.54440955
14.54440955
14.54440955
14.54440955
14.54440955
14.54440955
14.54440955
14.54440955
14.54440955
14.54440955
14.54440955
14.54440955
14.54440955
14.54440955
14.54440955
14.54440955
14.54440955
14.54440955
14.54440955
14.54440955
14.54440955
14.54440955
14.54440955
14.54440955
14.54440955
14.54440955
14.54440955
14.54440955
14.54440955
14.54440955
14.54440955
14.54440955
14.54440955
14.54440955
14.54440955
14.54440955
14.54440955
14.54440955
14.54440955
14.54440955
14.54440955
13.98599381
13.98599381
13.98599381
13.98599381
13.98599381
13.98599381
13.98599381
13.98599381
13.98599381
13.98599381
13.98599381
13.98599381
13.98599381
13.98599381
13.98599381
13.98599381
13.98599381
13.98599381
13.98599381
13.98599381
13.98599381
13.98599381
13.98599381
13.98599381
13.98599381
13.98599381
13.98599381
13.98599381
13.98599381
13.98599381
13.98599381
13.98599381
13.98599381
13.98599381
13.98599381
13.98599381
13.98599381
13.98599381
13.98599381
13.98599381
13.98599381
13.98599381
13.98599381
13.98599381
13.98599381
13.98599381
13.98599381
13.98599381
13.98599381
13.98599381
13.44713252
13.44713252
13.44713252
13.44713252
13.44713252
13.44713252
13.44713252
13.44713252
13.44713252
13.44713252
13.44713252
13.44713252
13.44713252
13.44713252
13.44713252
13.44713252
13.44713252
13.44713252
13.44713252
13.44713252
13.44713252
13.44713252
13.44713252
13.44713252
13.44713252
13.44713252
13.44713252
13.44713252
13.44713252
13.44713252
13.44713252
13.44713252
13.44713252
13.44713252
13.44713252
13.44713252
13.44713252
13.44713252
13.44713252
13.44713252
13.44713252
13.44713252
13.44713252
13.44713252
13.44713252
13.44713252
13.44713252
13.44713252
13.44713252
13.44713252
12.92721065
12.92721065
12.92721065
12.92721065
12.92721065
12.92721065
12.92721065
12.92721065
12.92721065
12.92721065
12.92721065
12.92721065
12.92721065
12.92721065
12.92721065
12.92721065
12.92721065
12.92721065
12.92721065
12.92721065
12.92721065
12.92721065
12.92721065
12.92721065
12.92721065
12.92721065
12.92721065
12.92721065
12.92721065
12.92721065
12.92721065
12.92721065
12.92721065
12.92721065
12.92721065
12.92721065
12.92721065
12.92721065
12.92721065
12.92721065
12.92721065
12.92721065
12.92721065
12.92721065
12.92721065
12.92721065
12.92721065
12.92721065
12.92721065
12.92721065
12.42563022
12.42563022
12.42563022
12.42563022
12.42563022
12.42563022
12.42563022
12.42563022
12.42563022
12.42563022
12.42563022
12.42563022
12.42563022
12.42563022
12.42563022
12.42563022
12.42563022
12.42563022
12.42563022
12.42563022
12.42563022
12.42563022
12.42563022
12.42563022
12.42563022
12.42563022
12.42563022
12.42563022
12.42563022
12.42563022
12.42563022
12.42563022
12.42563022
12.42563022
12.42563022
12.42563022
12.42563022
12.42563022
12.42563022
12.42563022
12.42563022
12.42563022
12.42563022
12.42563022
12.42563022
12.42563022
12.42563022
12.42563022
12.42563022
12.42563022
11.94180983
11.94180983
11.94180983
11.94180983
11.94180983
11.94180983
11.94180983
11.94180983
11.94180983
11.94180983
11.94180983
11.94180983
11.94180983
11.94180983
11.94180983
11.94180983
11.94180983
11.94180983
11.94180983
11.94180983
11.94180983
11.94180983
11.94180983
11.94180983
11.94180983
11.94180983
11.94180983
11.94180983
11.94180983
11.94180983
11.94180983
11.94180983
11.94180983
11.94180983
11.94180983
11.94180983
11.94180983
11.94180983
11.94180983
11.94180983
11.94180983
11.94180983
11.94180983
11.94180983
11.94180983
11.94180983
11.94180983
11.94180983
11.94180983
11.94180983
11.47518408
11.47518408
11.47518408
11.47518408
11.47518408
11.47518408
11.47518408
11.47518408
11.47518408
11.47518408
11.47518408
11.47518408
11.47518408
11.47518408
11.47518408
11.47518408
11.47518408
11.47518408
11.47518408
11.47518408
11.47518408
11.47518408
11.47518408
11.47518408
11.47518408
11.47518408
11.47518408
11.47518408
11.47518408
11.47518408
11.47518408
11.47518408
11.47518408
11.47518408
11.47518408
11.47518408
11.47518408
11.47518408
11.47518408
11.47518408
11.47518408
11.47518408
11.47518408
11.47518408
11.47518408
11.47518408
11.47518408
11.47518408
11.47518408
11.47518408
11.02520395
11.02520395
11.02520395
11.02520395
11.02520395
11.02520395
11.02520395
11.02520395
11.02520395
11.02520395
11.02520395
11.02520395
11.02520395
11.02520395
11.02520395
11.02520395
11.02520395
11.02520395
11.02520395
11.02520395
11.02520395
11.02520395
11.02520395
11.02520395
11.02520395
11.02520395
11.02520395
11.02520395
11.02520395
11.02520395
11.02520395
11.02520395
11.02520395
11.02520395
11.02520395
11.02520395
11.02520395
11.02520395
11.02520395
11.02520395
11.02520395
11.02520395
11.02520395
11.02520395
11.02520395
11.02520395
11.02520395
11.02520395
11.02520395
11.02520395
10.59133529
10.59133529
10.59133529
10.59133529
10.59133529
10.59133529
10.59133529
10.59133529
10.59133529
10.59133529
10.59133529
10.59133529
10.59133529
10.59133529
10.59133529
10.59133529
10.59133529
10.59133529
10.59133529
10.59133529
10.59133529
10.59133529
10.59133529
10.59133529
10.59133529
10.59133529
10.59133529
10.59133529
10.59133529
10.59133529
10.59133529
10.59133529
10.59133529
10.59133529
10.59133529
10.59133529
10.59133529
10.59133529
10.59133529
10.59133529
10.59133529
10.59133529
10.59133529
10.59133529
10.59133529
10.59133529
10.59133529
10.59133529
10.59133529
10.59133529
10.17305927
10.17305927
10.17305927
10.17305927
10.17305927
10.17305927
10.17305927
10.17305927
10.17305927
10.17305927
10.17305927
10.17305927
10.17305927
10.17305927
10.17305927
10.17305927
10.17305927
10.17305927
10.17305927
10.17305927
10.17305927
10.17305927
10.17305927
10.17305927
10.17305927
10.17305927
10.17305927
10.17305927
10.17305927
10.17305927
10.17305927
10.17305927
10.17305927
10.17305927
10.17305927
10.17305927
10.17305927
10.17305927
10.17305927
10.17305927
10.17305927
10.17305927
10.17305927
10.17305927
10.17305927
10.17305927
10.17305927
10.17305927
10.17305927
10.17305927
9.769871694
9.769871694
9.769871694
9.769871694
9.769871694
9.769871694
9.769871694
9.769871694
9.769871694
9.769871694
9.769871694
9.769871694
9.769871694
9.769871694
9.769871694
9.769871694
9.769871694
9.769871694
9.769871694
9.769871694
9.769871694
9.769871694
9.769871694
9.769871694
9.769871694
9.769871694
9.769871694
9.769871694
9.769871694
9.769871694
9.769871694
9.769871694
9.769871694
9.769871694
9.769871694
9.769871694
9.769871694
9.769871694
9.769871694
9.769871694
9.769871694
9.769871694
9.769871694
9.769871694
9.769871694
9.769871694