/*--------------------------------*- C++ -*----------------------------------*\
| =========                 |                                                 |
| \\      /  F ield         | OpenFOAM: The Open Source CFD Toolbox           |
|  \\    /   O peration     | Version:  5.x                                   |
|   \\  /    A nd           | Web:      www.OpenFOAM.org                      |
|    \\/     M anipulation  |                                                 |
\*---------------------------------------------------------------------------*/
FoamFile
{
    version     2.0;
    format      ascii;
    class       volScalarField;
    location    "0.004";
    object      vpstar;
}
// * * * * * * * * * * * * * * * * * * * * * * * * * * * * * * * * * * * * * //

dimensions      [0 3 0 0 0 0 0];

internalField   nonuniform List<scalar> 
7950
(
-2.757410162e-29
-2.757405502e-29
-2.757398211e-29
-2.75738727e-29
-2.757372684e-29
-2.757354322e-29
-2.757332093e-29
-2.75730587e-29
-2.757275504e-29
-2.757240861e-29
-2.757201727e-29
-2.757157917e-29
-2.757109164e-29
-2.757055231e-29
-2.756995812e-29
-2.756930549e-29
-2.75685907e-29
-2.756780964e-29
-2.756695768e-29
-2.756602951e-29
-2.756501944e-29
-2.756392111e-29
-2.756272722e-29
-2.756143025e-29
-2.756002117e-29
-2.755849048e-29
-2.755682744e-29
-2.755502016e-29
-2.755305543e-29
-2.755091867e-29
-2.754859379e-29
-2.754606282e-29
-2.754330596e-29
-2.754029837e-29
-2.753701811e-29
-2.753344561e-29
-2.752953188e-29
-2.752525063e-29
-2.752057675e-29
-2.751545225e-29
-2.750983621e-29
-2.750367645e-29
-2.74969144e-29
-2.748948511e-29
-2.748131592e-29
-2.747232385e-29
-2.746241893e-29
-2.745152859e-29
-2.743956219e-29
-2.742611099e-29
-2.221111938e-29
-2.221109804e-29
-2.221105033e-29
-2.221097735e-29
-2.221087933e-29
-2.221075619e-29
-2.221060769e-29
-2.22104336e-29
-2.22102336e-29
-2.221000721e-29
-2.220975399e-29
-2.220947347e-29
-2.220916514e-29
-2.220882832e-29
-2.220846233e-29
-2.220806648e-29
-2.220763995e-29
-2.220718191e-29
-2.220669147e-29
-2.220616771e-29
-2.220560954e-29
-2.220501594e-29
-2.220438571e-29
-2.220371775e-29
-2.22030108e-29
-2.220226353e-29
-2.220147467e-29
-2.220064275e-29
-2.21997665e-29
-2.219884442e-29
-2.219787506e-29
-2.219685703e-29
-2.219578893e-29
-2.21946694e-29
-2.219349712e-29
-2.219227099e-29
-2.219099005e-29
-2.218965323e-29
-2.218826015e-29
-2.218681053e-29
-2.218530451e-29
-2.218374259e-29
-2.218212557e-29
-2.218045483e-29
-2.217873205e-29
-2.217695896e-29
-2.217513727e-29
-2.21732671e-29
-2.217134305e-29
-2.216933736e-29
-2.236985596e-29
-2.236983896e-29
-2.236980144e-29
-2.236974442e-29
-2.236966809e-29
-2.236957239e-29
-2.236945739e-29
-2.236932313e-29
-2.236916944e-29
-2.236899644e-29
-2.236880402e-29
-2.236859216e-29
-2.236836082e-29
-2.236810998e-29
-2.236783966e-29
-2.236754979e-29
-2.236724043e-29
-2.236691146e-29
-2.236656294e-29
-2.236619495e-29
-2.236580752e-29
-2.236540068e-29
-2.23649746e-29
-2.236452934e-29
-2.236406503e-29
-2.236358197e-29
-2.236308028e-29
-2.236256034e-29
-2.23620225e-29
-2.236146701e-29
-2.236089449e-29
-2.236030535e-29
-2.235970027e-29
-2.235907986e-29
-2.235844496e-29
-2.235779638e-29
-2.235713515e-29
-2.235646224e-29
-2.235577894e-29
-2.235508645e-29
-2.235438624e-29
-2.235367984e-29
-2.235296894e-29
-2.235225526e-29
-2.235154074e-29
-2.235082739e-29
-2.235011734e-29
-2.23494128e-29
-2.234871601e-29
-2.234802937e-29
-2.254028147e-29
-2.254027109e-29
-2.25402483e-29
-2.254021366e-29
-2.254016735e-29
-2.254010937e-29
-2.254003978e-29
-2.25399587e-29
-2.25398662e-29
-2.253976228e-29
-2.253964706e-29
-2.253952066e-29
-2.253938314e-29
-2.253923463e-29
-2.253907526e-29
-2.253890519e-29
-2.253872444e-29
-2.253853338e-29
-2.2538332e-29
-2.253812061e-29
-2.253789939e-29
-2.25376686e-29
-2.253742841e-29
-2.253717914e-29
-2.253692103e-29
-2.253665445e-29
-2.25363797e-29
-2.253609709e-29
-2.253580706e-29
-2.253550997e-29
-2.25352062e-29
-2.253489628e-29
-2.25345806e-29
-2.253425971e-29
-2.253393403e-29
-2.253360424e-29
-2.253327083e-29
-2.253293436e-29
-2.253259556e-29
-2.253225493e-29
-2.253191319e-29
-2.253157097e-29
-2.253122906e-29
-2.253088802e-29
-2.25305487e-29
-2.253021178e-29
-2.252987794e-29
-2.252954791e-29
-2.252922243e-29
-2.252890223e-29
-2.27172775e-29
-2.27172718e-29
-2.271725929e-29
-2.271724028e-29
-2.271721488e-29
-2.27171831e-29
-2.271714507e-29
-2.271710078e-29
-2.271705023e-29
-2.271699362e-29
-2.271693093e-29
-2.271686224e-29
-2.271678772e-29
-2.271670738e-29
-2.271662135e-29
-2.271652974e-29
-2.271643267e-29
-2.271633029e-29
-2.271622276e-29
-2.271611015e-29
-2.271599271e-29
-2.271587057e-29
-2.271574384e-29
-2.271561278e-29
-2.271547757e-29
-2.271533839e-29
-2.271519544e-29
-2.271504896e-29
-2.27148992e-29
-2.27147464e-29
-2.271459069e-29
-2.271443245e-29
-2.271427191e-29
-2.271410927e-29
-2.27139449e-29
-2.271377898e-29
-2.271361189e-29
-2.27134438e-29
-2.27132751e-29
-2.271310609e-29
-2.271293702e-29
-2.271276819e-29
-2.271259993e-29
-2.27124326e-29
-2.271226638e-29
-2.271210165e-29
-2.271193872e-29
-2.271177783e-29
-2.27116193e-29
-2.271146343e-29
-2.289861353e-29
-2.289861059e-29
-2.289860403e-29
-2.289859409e-29
-2.289858079e-29
-2.289856423e-29
-2.289854436e-29
-2.289852118e-29
-2.289849482e-29
-2.289846533e-29
-2.289843265e-29
-2.289839691e-29
-2.289835817e-29
-2.289831644e-29
-2.289827177e-29
-2.289822435e-29
-2.289817411e-29
-2.289812119e-29
-2.289806565e-29
-2.289800767e-29
-2.289794719e-29
-2.28978844e-29
-2.289781943e-29
-2.289775227e-29
-2.289768317e-29
-2.289761207e-29
-2.289753928e-29
-2.289746475e-29
-2.289738865e-29
-2.289731118e-29
-2.28972324e-29
-2.289715244e-29
-2.289707141e-29
-2.289698956e-29
-2.289690691e-29
-2.289682357e-29
-2.289673985e-29
-2.28966557e-29
-2.289657143e-29
-2.289648702e-29
-2.289640275e-29
-2.289631872e-29
-2.289623501e-29
-2.289615186e-29
-2.289606933e-29
-2.289598762e-29
-2.289590678e-29
-2.289582707e-29
-2.289574854e-29
-2.289567133e-29
-2.308300179e-29
-2.308300028e-29
-2.308299694e-29
-2.308299183e-29
-2.308298503e-29
-2.308297658e-29
-2.308296637e-29
-2.308295458e-29
-2.30829411e-29
-2.308292603e-29
-2.308290933e-29
-2.308289112e-29
-2.308287133e-29
-2.308285009e-29
-2.308282734e-29
-2.308280314e-29
-2.308277761e-29
-2.30827507e-29
-2.308272247e-29
-2.308269297e-29
-2.308266234e-29
-2.308263045e-29
-2.308259755e-29
-2.308256352e-29
-2.308252854e-29
-2.308249262e-29
-2.308245581e-29
-2.308241819e-29
-2.308237981e-29
-2.308234073e-29
-2.308230109e-29
-2.308226082e-29
-2.308222011e-29
-2.308217895e-29
-2.308213742e-29
-2.308209564e-29
-2.30820536e-29
-2.308201144e-29
-2.308196922e-29
-2.308192699e-29
-2.308188483e-29
-2.30818428e-29
-2.308180095e-29
-2.308175942e-29
-2.30817182e-29
-2.308167737e-29
-2.308163703e-29
-2.308159727e-29
-2.308155807e-29
-2.308151956e-29
-2.326975922e-29
-2.32697584e-29
-2.326975674e-29
-2.326975414e-29
-2.32697507e-29
-2.326974645e-29
-2.32697413e-29
-2.326973532e-29
-2.326972852e-29
-2.326972089e-29
-2.326971243e-29
-2.326970321e-29
-2.326969323e-29
-2.326968242e-29
-2.326967098e-29
-2.326965877e-29
-2.326964587e-29
-2.326963226e-29
-2.326961802e-29
-2.326960314e-29
-2.326958763e-29
-2.326957161e-29
-2.326955501e-29
-2.326953785e-29
-2.326952024e-29
-2.326950212e-29
-2.326948362e-29
-2.326946467e-29
-2.326944541e-29
-2.326942576e-29
-2.32694058e-29
-2.326938558e-29
-2.326936511e-29
-2.326934445e-29
-2.326932359e-29
-2.326930261e-29
-2.326928157e-29
-2.32692604e-29
-2.326923923e-29
-2.326921806e-29
-2.326919689e-29
-2.326917584e-29
-2.326915493e-29
-2.326913407e-29
-2.326911347e-29
-2.3269093e-29
-2.326907285e-29
-2.326905289e-29
-2.326903331e-29
-2.326901398e-29
-2.345854038e-29
-2.345854e-29
-2.34585391e-29
-2.345853782e-29
-2.345853609e-29
-2.345853391e-29
-2.345853134e-29
-2.345852833e-29
-2.345852493e-29
-2.345852108e-29
-2.345851678e-29
-2.345851216e-29
-2.34585071e-29
-2.345850171e-29
-2.345849594e-29
-2.345848978e-29
-2.34584833e-29
-2.345847644e-29
-2.345846926e-29
-2.345846182e-29
-2.345845399e-29
-2.345844591e-29
-2.345843757e-29
-2.345842898e-29
-2.345842013e-29
-2.345841102e-29
-2.345840172e-29
-2.345839216e-29
-2.345838248e-29
-2.34583726e-29
-2.34583626e-29
-2.345835246e-29
-2.34583422e-29
-2.345833181e-29
-2.345832136e-29
-2.345831084e-29
-2.345830026e-29
-2.345828961e-29
-2.345827903e-29
-2.345826838e-29
-2.34582578e-29
-2.345824721e-29
-2.34582367e-29
-2.345822624e-29
-2.345821592e-29
-2.345820565e-29
-2.345819552e-29
-2.345818558e-29
-2.34581757e-29
-2.345816608e-29
-2.364917768e-29
-2.364917748e-29
-2.36491771e-29
-2.364917645e-29
-2.364917554e-29
-2.364917444e-29
-2.364917315e-29
-2.364917166e-29
-2.364916991e-29
-2.364916797e-29
-2.364916584e-29
-2.364916351e-29
-2.364916099e-29
-2.364915827e-29
-2.364915536e-29
-2.364915225e-29
-2.364914902e-29
-2.364914559e-29
-2.364914196e-29
-2.364913821e-29
-2.364913433e-29
-2.364913025e-29
-2.364912605e-29
-2.364912171e-29
-2.364911725e-29
-2.364911272e-29
-2.364910799e-29
-2.364910327e-29
-2.364909835e-29
-2.364909344e-29
-2.364908839e-29
-2.364908328e-29
-2.364907817e-29
-2.364907292e-29
-2.364906768e-29
-2.364906238e-29
-2.364905707e-29
-2.364905177e-29
-2.364904646e-29
-2.364904109e-29
-2.364903579e-29
-2.364903048e-29
-2.364902524e-29
-2.364902e-29
-2.364901476e-29
-2.364900965e-29
-2.364900453e-29
-2.364899955e-29
-2.364899463e-29
-2.364898978e-29
-2.384159484e-29
-2.384159471e-29
-2.384159452e-29
-2.384159419e-29
-2.384159373e-29
-2.384159321e-29
-2.384159256e-29
-2.384159177e-29
-2.384159093e-29
-2.384158995e-29
-2.38415889e-29
-2.384158773e-29
-2.384158642e-29
-2.384158505e-29
-2.384158361e-29
-2.384158205e-29
-2.384158042e-29
-2.384157872e-29
-2.384157689e-29
-2.3841575e-29
-2.384157304e-29
-2.384157102e-29
-2.384156893e-29
-2.384156671e-29
-2.384156449e-29
-2.38415622e-29
-2.384155985e-29
-2.384155744e-29
-2.384155502e-29
-2.384155254e-29
-2.384155e-29
-2.384154745e-29
-2.384154484e-29
-2.384154223e-29
-2.384153962e-29
-2.384153694e-29
-2.384153427e-29
-2.384153159e-29
-2.384152898e-29
-2.38415263e-29
-2.384152363e-29
-2.384152095e-29
-2.384151827e-29
-2.384151566e-29
-2.384151305e-29
-2.384151051e-29
-2.384150796e-29
-2.384150542e-29
-2.384150294e-29
-2.384150052e-29
-2.403576176e-29
-2.403576169e-29
-2.403576156e-29
-2.403576143e-29
-2.403576123e-29
-2.40357609e-29
-2.403576057e-29
-2.403576024e-29
-2.403575978e-29
-2.403575932e-29
-2.403575879e-29
-2.40357582e-29
-2.403575754e-29
-2.403575682e-29
-2.403575609e-29
-2.403575537e-29
-2.403575451e-29
-2.403575366e-29
-2.403575274e-29
-2.403575181e-29
-2.403575083e-29
-2.403574977e-29
-2.403574872e-29
-2.403574767e-29
-2.403574655e-29
-2.403574536e-29
-2.403574417e-29
-2.403574299e-29
-2.403574174e-29
-2.403574049e-29
-2.403573924e-29
-2.403573798e-29
-2.403573667e-29
-2.403573535e-29
-2.403573403e-29
-2.403573272e-29
-2.403573133e-29
-2.403573002e-29
-2.40357287e-29
-2.403572732e-29
-2.4035726e-29
-2.403572468e-29
-2.403572337e-29
-2.403572198e-29
-2.403572073e-29
-2.403571941e-29
-2.403571816e-29
-2.403571685e-29
-2.403571566e-29
-2.403571441e-29
-2.423167185e-29
-2.423167185e-29
-2.423167178e-29
-2.423167172e-29
-2.423167158e-29
-2.423167145e-29
-2.423167125e-29
-2.423167112e-29
-2.423167085e-29
-2.423167065e-29
-2.423167039e-29
-2.423167005e-29
-2.423166972e-29
-2.423166939e-29
-2.423166906e-29
-2.423166866e-29
-2.423166819e-29
-2.42316678e-29
-2.423166733e-29
-2.423166687e-29
-2.423166633e-29
-2.423166587e-29
-2.423166534e-29
-2.423166481e-29
-2.423166421e-29
-2.423166361e-29
-2.423166301e-29
-2.423166241e-29
-2.423166182e-29
-2.423166122e-29
-2.423166055e-29
-2.423165989e-29
-2.423165929e-29
-2.423165863e-29
-2.423165796e-29
-2.42316573e-29
-2.423165663e-29
-2.42316559e-29
-2.423165524e-29
-2.423165457e-29
-2.423165391e-29
-2.423165325e-29
-2.423165258e-29
-2.423165192e-29
-2.423165125e-29
-2.423165059e-29
-2.423164999e-29
-2.423164933e-29
-2.423164873e-29
-2.423164813e-29
-2.442933047e-29
-2.442933047e-29
-2.442933047e-29
-2.442933041e-29
-2.442933034e-29
-2.442933027e-29
-2.442933021e-29
-2.442933007e-29
-2.442933001e-29
-2.442932987e-29
-2.442932974e-29
-2.44293296e-29
-2.44293294e-29
-2.442932927e-29
-2.442932907e-29
-2.442932887e-29
-2.442932866e-29
-2.442932846e-29
-2.44293282e-29
-2.442932799e-29
-2.442932773e-29
-2.442932746e-29
-2.442932719e-29
-2.442932692e-29
-2.442932665e-29
-2.442932639e-29
-2.442932605e-29
-2.442932578e-29
-2.442932545e-29
-2.442932511e-29
-2.442932484e-29
-2.442932451e-29
-2.442932417e-29
-2.442932384e-29
-2.44293235e-29
-2.442932317e-29
-2.442932283e-29
-2.44293225e-29
-2.442932216e-29
-2.442932183e-29
-2.442932149e-29
-2.442932116e-29
-2.442932082e-29
-2.442932049e-29
-2.442932015e-29
-2.442931982e-29
-2.442931948e-29
-2.442931921e-29
-2.442931888e-29
-2.442931854e-29
-2.462874905e-29
-2.462874905e-29
-2.462874898e-29
-2.462874898e-29
-2.462874898e-29
-2.462874892e-29
-2.462874892e-29
-2.462874885e-29
-2.462874878e-29
-2.462874871e-29
-2.462874865e-29
-2.462874858e-29
-2.462874851e-29
-2.462874844e-29
-2.462874831e-29
-2.462874824e-29
-2.462874811e-29
-2.462874804e-29
-2.46287479e-29
-2.462874777e-29
-2.462874763e-29
-2.46287475e-29
-2.462874736e-29
-2.462874723e-29
-2.462874709e-29
-2.462874696e-29
-2.462874682e-29
-2.462874669e-29
-2.462874648e-29
-2.462874635e-29
-2.462874621e-29
-2.462874601e-29
-2.462874587e-29
-2.462874567e-29
-2.462874554e-29
-2.462874533e-29
-2.46287452e-29
-2.4628745e-29
-2.462874486e-29
-2.462874466e-29
-2.462874452e-29
-2.462874432e-29
-2.462874418e-29
-2.462874398e-29
-2.462874385e-29
-2.462874364e-29
-2.462874351e-29
-2.462874337e-29
-2.462874317e-29
-2.462874303e-29
-2.482994205e-29
-2.482994205e-29
-2.482994205e-29
-2.482994205e-29
-2.482994198e-29
-2.482994198e-29
-2.482994198e-29
-2.482994191e-29
-2.482994191e-29
-2.482994191e-29
-2.482994184e-29
-2.482994178e-29
-2.482994178e-29
-2.482994171e-29
-2.482994171e-29
-2.482994164e-29
-2.482994157e-29
-2.48299415e-29
-2.482994144e-29
-2.482994144e-29
-2.482994137e-29
-2.48299413e-29
-2.482994123e-29
-2.482994116e-29
-2.482994109e-29
-2.482994103e-29
-2.482994089e-29
-2.482994082e-29
-2.482994075e-29
-2.482994069e-29
-2.482994062e-29
-2.482994055e-29
-2.482994041e-29
-2.482994034e-29
-2.482994028e-29
-2.482994021e-29
-2.482994007e-29
-2.482994e-29
-2.482993993e-29
-2.482993987e-29
-2.482993973e-29
-2.482993966e-29
-2.482993959e-29
-2.482993953e-29
-2.482993939e-29
-2.482993932e-29
-2.482993925e-29
-2.482993918e-29
-2.482993912e-29
-2.482993905e-29
-2.503292574e-29
-2.503292574e-29
-2.503292574e-29
-2.503292567e-29
-2.503292567e-29
-2.503292567e-29
-2.503292567e-29
-2.503292567e-29
-2.503292567e-29
-2.50329256e-29
-2.50329256e-29
-2.50329256e-29
-2.50329256e-29
-2.503292554e-29
-2.503292554e-29
-2.503292554e-29
-2.503292547e-29
-2.503292547e-29
-2.50329254e-29
-2.50329254e-29
-2.503292533e-29
-2.503292533e-29
-2.503292533e-29
-2.503292526e-29
-2.503292519e-29
-2.503292519e-29
-2.503292512e-29
-2.503292512e-29
-2.503292505e-29
-2.503292505e-29
-2.503292499e-29
-2.503292492e-29
-2.503292492e-29
-2.503292485e-29
-2.503292485e-29
-2.503292478e-29
-2.503292471e-29
-2.503292471e-29
-2.503292464e-29
-2.503292464e-29
-2.503292457e-29
-2.50329245e-29
-2.50329245e-29
-2.503292443e-29
-2.503292437e-29
-2.503292437e-29
-2.50329243e-29
-2.503292423e-29
-2.503292423e-29
-2.503292416e-29
-2.523771725e-29
-2.523771725e-29
-2.523771725e-29
-2.523771725e-29
-2.523771725e-29
-2.523771718e-29
-2.523771718e-29
-2.523771718e-29
-2.523771718e-29
-2.523771718e-29
-2.523771718e-29
-2.523771718e-29
-2.523771718e-29
-2.523771718e-29
-2.523771711e-29
-2.523771711e-29
-2.523771711e-29
-2.523771711e-29
-2.523771711e-29
-2.523771704e-29
-2.523771704e-29
-2.523771704e-29
-2.523771704e-29
-2.523771697e-29
-2.523771697e-29
-2.523771697e-29
-2.523771697e-29
-2.52377169e-29
-2.52377169e-29
-2.52377169e-29
-2.52377169e-29
-2.523771683e-29
-2.523771683e-29
-2.523771683e-29
-2.523771676e-29
-2.523771676e-29
-2.523771676e-29
-2.523771669e-29
-2.523771669e-29
-2.523771669e-29
-2.523771669e-29
-2.523771663e-29
-2.523771663e-29
-2.523771663e-29
-2.523771656e-29
-2.523771656e-29
-2.523771656e-29
-2.523771656e-29
-2.523771649e-29
-2.523771649e-29
-2.544433429e-29
-2.544433429e-29
-2.544433429e-29
-2.544433429e-29
-2.544433429e-29
-2.544433429e-29
-2.544433429e-29
-2.544433429e-29
-2.544433429e-29
-2.544433429e-29
-2.544433429e-29
-2.544433429e-29
-2.544433429e-29
-2.544433429e-29
-2.544433429e-29
-2.544433429e-29
-2.544433422e-29
-2.544433422e-29
-2.544433422e-29
-2.544433422e-29
-2.544433422e-29
-2.544433422e-29
-2.544433422e-29
-2.544433422e-29
-2.544433422e-29
-2.544433415e-29
-2.544433415e-29
-2.544433415e-29
-2.544433415e-29
-2.544433415e-29
-2.544433415e-29
-2.544433415e-29
-2.544433408e-29
-2.544433408e-29
-2.544433408e-29
-2.544433408e-29
-2.544433408e-29
-2.544433408e-29
-2.544433408e-29
-2.544433401e-29
-2.544433401e-29
-2.544433401e-29
-2.544433401e-29
-2.544433401e-29
-2.544433401e-29
-2.544433401e-29
-2.544433394e-29
-2.544433394e-29
-2.544433394e-29
-2.544433394e-29
-2.565279512e-29
-2.565279512e-29
-2.565279512e-29
-2.565279512e-29
-2.565279512e-29
-2.565279512e-29
-2.565279512e-29
-2.565279512e-29
-2.565279512e-29
-2.565279512e-29
-2.565279505e-29
-2.565279505e-29
-2.565279505e-29
-2.565279505e-29
-2.565279505e-29
-2.565279505e-29
-2.565279505e-29
-2.565279505e-29
-2.565279505e-29
-2.565279505e-29
-2.565279505e-29
-2.565279505e-29
-2.565279505e-29
-2.565279505e-29
-2.565279505e-29
-2.565279505e-29
-2.565279505e-29
-2.565279505e-29
-2.565279505e-29
-2.565279498e-29
-2.565279498e-29
-2.565279498e-29
-2.565279498e-29
-2.565279498e-29
-2.565279498e-29
-2.565279498e-29
-2.565279498e-29
-2.565279498e-29
-2.565279498e-29
-2.565279498e-29
-2.565279498e-29
-2.565279498e-29
-2.565279498e-29
-2.565279491e-29
-2.565279491e-29
-2.565279491e-29
-2.565279491e-29
-2.565279491e-29
-2.565279491e-29
-2.565279491e-29
-2.5863118e-29
-2.5863118e-29
-2.5863118e-29
-2.5863118e-29
-2.5863118e-29
-2.5863118e-29
-2.5863118e-29
-2.5863118e-29
-2.5863118e-29
-2.5863118e-29
-2.5863118e-29
-2.5863118e-29
-2.5863118e-29
-2.5863118e-29
-2.5863118e-29
-2.5863118e-29
-2.5863118e-29
-2.5863118e-29
-2.5863118e-29
-2.5863118e-29
-2.5863118e-29
-2.5863118e-29
-2.5863118e-29
-2.5863118e-29
-2.5863118e-29
-2.5863118e-29
-2.5863118e-29
-2.5863118e-29
-2.5863118e-29
-2.5863118e-29
-2.5863118e-29
-2.5863118e-29
-2.5863118e-29
-2.5863118e-29
-2.5863118e-29
-2.5863118e-29
-2.586311793e-29
-2.586311793e-29
-2.586311793e-29
-2.586311793e-29
-2.586311793e-29
-2.586311793e-29
-2.586311793e-29
-2.586311793e-29
-2.586311793e-29
-2.586311793e-29
-2.586311793e-29
-2.586311793e-29
-2.586311793e-29
-2.586311793e-29
-2.607532181e-29
-2.607532181e-29
-2.607532181e-29
-2.607532181e-29
-2.607532181e-29
-2.607532181e-29
-2.607532181e-29
-2.607532181e-29
-2.607532181e-29
-2.607532181e-29
-2.607532181e-29
-2.607532181e-29
-2.607532181e-29
-2.607532181e-29
-2.607532181e-29
-2.607532181e-29
-2.607532181e-29
-2.607532181e-29
-2.607532181e-29
-2.607532181e-29
-2.607532181e-29
-2.607532181e-29
-2.607532181e-29
-2.607532181e-29
-2.607532181e-29
-2.607532181e-29
-2.607532174e-29
-2.607532174e-29
-2.607532174e-29
-2.607532174e-29
-2.607532174e-29
-2.607532174e-29
-2.607532174e-29
-2.607532174e-29
-2.607532174e-29
-2.607532174e-29
-2.607532174e-29
-2.607532174e-29
-2.607532174e-29
-2.607532174e-29
-2.607532174e-29
-2.607532174e-29
-2.607532174e-29
-2.607532174e-29
-2.607532174e-29
-2.607532174e-29
-2.607532174e-29
-2.607532174e-29
-2.607532174e-29
-2.607532174e-29
-2.628942537e-29
-2.628942537e-29
-2.628942537e-29
-2.628942537e-29
-2.628942537e-29
-2.628942537e-29
-2.628942537e-29
-2.628942537e-29
-2.628942537e-29
-2.628942537e-29
-2.628942537e-29
-2.628942537e-29
-2.628942537e-29
-2.628942537e-29
-2.62894253e-29
-2.62894253e-29
-2.62894253e-29
-2.62894253e-29
-2.62894253e-29
-2.62894253e-29
-2.62894253e-29
-2.62894253e-29
-2.62894253e-29
-2.62894253e-29
-2.62894253e-29
-2.62894253e-29
-2.62894253e-29
-2.62894253e-29
-2.62894253e-29
-2.62894253e-29
-2.62894253e-29
-2.62894253e-29
-2.62894253e-29
-2.62894253e-29
-2.62894253e-29
-2.62894253e-29
-2.62894253e-29
-2.62894253e-29
-2.62894253e-29
-2.62894253e-29
-2.62894253e-29
-2.62894253e-29
-2.62894253e-29
-2.62894253e-29
-2.62894253e-29
-2.62894253e-29
-2.62894253e-29
-2.62894253e-29
-2.62894253e-29
-2.62894253e-29
-2.650544787e-29
-2.650544787e-29
-2.650544787e-29
-2.650544787e-29
-2.650544787e-29
-2.650544787e-29
-2.650544787e-29
-2.650544787e-29
-2.650544787e-29
-2.650544787e-29
-2.650544787e-29
-2.650544787e-29
-2.650544787e-29
-2.650544787e-29
-2.650544787e-29
-2.650544787e-29
-2.650544787e-29
-2.650544787e-29
-2.650544787e-29
-2.650544787e-29
-2.650544787e-29
-2.650544787e-29
-2.650544779e-29
-2.650544779e-29
-2.650544779e-29
-2.650544779e-29
-2.650544779e-29
-2.650544779e-29
-2.650544779e-29
-2.650544779e-29
-2.650544779e-29
-2.650544779e-29
-2.650544779e-29
-2.650544779e-29
-2.650544779e-29
-2.650544779e-29
-2.650544779e-29
-2.650544779e-29
-2.650544779e-29
-2.650544779e-29
-2.650544779e-29
-2.650544779e-29
-2.650544779e-29
-2.650544779e-29
-2.650544779e-29
-2.650544779e-29
-2.650544779e-29
-2.650544779e-29
-2.650544779e-29
-2.650544779e-29
-2.672340869e-29
-2.672340869e-29
-2.672340869e-29
-2.672340869e-29
-2.672340869e-29
-2.672340869e-29
-2.672340869e-29
-2.672340869e-29
-2.672340869e-29
-2.672340869e-29
-2.672340869e-29
-2.672340869e-29
-2.672340869e-29
-2.672340869e-29
-2.672340869e-29
-2.672340869e-29
-2.672340869e-29
-2.672340869e-29
-2.672340869e-29
-2.672340869e-29
-2.672340869e-29
-2.672340869e-29
-2.672340869e-29
-2.672340869e-29
-2.672340869e-29
-2.672340869e-29
-2.672340869e-29
-2.672340869e-29
-2.672340869e-29
-2.672340869e-29
-2.672340869e-29
-2.672340869e-29
-2.672340869e-29
-2.672340869e-29
-2.672340869e-29
-2.672340869e-29
-2.672340869e-29
-2.672340869e-29
-2.672340869e-29
-2.672340869e-29
-2.672340869e-29
-2.672340869e-29
-2.672340869e-29
-2.672340869e-29
-2.672340869e-29
-2.672340869e-29
-2.672340869e-29
-2.672340869e-29
-2.672340869e-29
-2.672340869e-29
-2.694332746e-29
-2.694332746e-29
-2.694332746e-29
-2.694332746e-29
-2.694332746e-29
-2.694332746e-29
-2.694332746e-29
-2.694332746e-29
-2.694332746e-29
-2.694332746e-29
-2.694332746e-29
-2.694332746e-29
-2.694332746e-29
-2.694332746e-29
-2.694332746e-29
-2.694332746e-29
-2.694332746e-29
-2.694332746e-29
-2.694332746e-29
-2.694332746e-29
-2.694332746e-29
-2.694332746e-29
-2.694332746e-29
-2.694332746e-29
-2.694332746e-29
-2.694332746e-29
-2.694332746e-29
-2.694332746e-29
-2.694332746e-29
-2.694332746e-29
-2.694332746e-29
-2.694332746e-29
-2.694332746e-29
-2.694332746e-29
-2.694332746e-29
-2.694332746e-29
-2.694332746e-29
-2.694332746e-29
-2.694332746e-29
-2.694332746e-29
-2.694332746e-29
-2.694332746e-29
-2.694332746e-29
-2.694332746e-29
-2.694332746e-29
-2.694332746e-29
-2.694332746e-29
-2.694332746e-29
-2.694332746e-29
-2.694332746e-29
-2.716522402e-29
-2.716522402e-29
-2.716522402e-29
-2.716522402e-29
-2.716522402e-29
-2.716522402e-29
-2.716522402e-29
-2.716522402e-29
-2.716522402e-29
-2.716522402e-29
-2.716522402e-29
-2.716522402e-29
-2.716522402e-29
-2.716522402e-29
-2.716522402e-29
-2.716522402e-29
-2.716522402e-29
-2.716522402e-29
-2.716522402e-29
-2.716522402e-29
-2.716522402e-29
-2.716522402e-29
-2.716522402e-29
-2.716522402e-29
-2.716522402e-29
-2.716522402e-29
-2.716522402e-29
-2.716522402e-29
-2.716522402e-29
-2.716522402e-29
-2.716522402e-29
-2.716522402e-29
-2.716522402e-29
-2.716522402e-29
-2.716522402e-29
-2.716522402e-29
-2.716522402e-29
-2.716522402e-29
-2.716522402e-29
-2.716522402e-29
-2.716522402e-29
-2.716522402e-29
-2.716522402e-29
-2.716522402e-29
-2.716522402e-29
-2.716522402e-29
-2.716522402e-29
-2.716522402e-29
-2.716522402e-29
-2.716522402e-29
-2.738911845e-29
-2.738911845e-29
-2.738911845e-29
-2.738911845e-29
-2.738911845e-29
-2.738911845e-29
-2.738911845e-29
-2.738911845e-29
-2.738911845e-29
-2.738911845e-29
-2.738911845e-29
-2.738911845e-29
-2.738911845e-29
-2.738911845e-29
-2.738911845e-29
-2.738911845e-29
-2.738911845e-29
-2.738911845e-29
-2.738911845e-29
-2.738911845e-29
-2.738911845e-29
-2.738911845e-29
-2.738911845e-29
-2.738911845e-29
-2.738911845e-29
-2.738911845e-29
-2.738911845e-29
-2.738911845e-29
-2.738911845e-29
-2.738911845e-29
-2.738911845e-29
-2.738911845e-29
-2.738911845e-29
-2.738911845e-29
-2.738911845e-29
-2.738911845e-29
-2.738911845e-29
-2.738911845e-29
-2.738911845e-29
-2.738911845e-29
-2.738911845e-29
-2.738911845e-29
-2.738911845e-29
-2.738911845e-29
-2.738911845e-29
-2.738911845e-29
-2.738911845e-29
-2.738911845e-29
-2.738911845e-29
-2.738911845e-29
-2.761503106e-29
-2.761503106e-29
-2.761503106e-29
-2.761503106e-29
-2.761503106e-29
-2.761503106e-29
-2.761503106e-29
-2.761503106e-29
-2.761503106e-29
-2.761503106e-29
-2.761503106e-29
-2.761503106e-29
-2.761503106e-29
-2.761503106e-29
-2.761503106e-29
-2.761503106e-29
-2.761503106e-29
-2.761503106e-29
-2.761503106e-29
-2.761503106e-29
-2.761503106e-29
-2.761503106e-29
-2.761503106e-29
-2.761503106e-29
-2.761503106e-29
-2.761503106e-29
-2.761503106e-29
-2.761503106e-29
-2.761503106e-29
-2.761503106e-29
-2.761503106e-29
-2.761503106e-29
-2.761503106e-29
-2.761503106e-29
-2.761503106e-29
-2.761503106e-29
-2.761503106e-29
-2.761503106e-29
-2.761503106e-29
-2.761503106e-29
-2.761503106e-29
-2.761503106e-29
-2.761503106e-29
-2.761503106e-29
-2.761503106e-29
-2.761503106e-29
-2.761503106e-29
-2.761503106e-29
-2.761503106e-29
-2.761503106e-29
-2.78429824e-29
-2.78429824e-29
-2.78429824e-29
-2.78429824e-29
-2.78429824e-29
-2.78429824e-29
-2.78429824e-29
-2.78429824e-29
-2.78429824e-29
-2.78429824e-29
-2.78429824e-29
-2.78429824e-29
-2.78429824e-29
-2.78429824e-29
-2.78429824e-29
-2.78429824e-29
-2.78429824e-29
-2.78429824e-29
-2.78429824e-29
-2.78429824e-29
-2.78429824e-29
-2.78429824e-29
-2.78429824e-29
-2.78429824e-29
-2.78429824e-29
-2.78429824e-29
-2.78429824e-29
-2.78429824e-29
-2.78429824e-29
-2.78429824e-29
-2.78429824e-29
-2.78429824e-29
-2.78429824e-29
-2.78429824e-29
-2.78429824e-29
-2.78429824e-29
-2.78429824e-29
-2.78429824e-29
-2.78429824e-29
-2.78429824e-29
-2.78429824e-29
-2.78429824e-29
-2.78429824e-29
-2.78429824e-29
-2.78429824e-29
-2.78429824e-29
-2.78429824e-29
-2.78429824e-29
-2.78429824e-29
-2.78429824e-29
-2.807299332e-29
-2.807299332e-29
-2.807299332e-29
-2.807299332e-29
-2.807299332e-29
-2.807299332e-29
-2.807299332e-29
-2.807299332e-29
-2.807299332e-29
-2.807299332e-29
-2.807299332e-29
-2.807299332e-29
-2.807299332e-29
-2.807299332e-29
-2.807299332e-29
-2.807299332e-29
-2.807299332e-29
-2.807299332e-29
-2.807299332e-29
-2.807299332e-29
-2.807299332e-29
-2.807299332e-29
-2.807299332e-29
-2.807299332e-29
-2.807299332e-29
-2.807299332e-29
-2.807299332e-29
-2.807299332e-29
-2.807299332e-29
-2.807299332e-29
-2.807299332e-29
-2.807299332e-29
-2.807299332e-29
-2.807299332e-29
-2.807299332e-29
-2.807299332e-29
-2.807299332e-29
-2.807299332e-29
-2.807299332e-29
-2.807299332e-29
-2.807299332e-29
-2.807299332e-29
-2.807299332e-29
-2.807299332e-29
-2.807299332e-29
-2.807299332e-29
-2.807299332e-29
-2.807299332e-29
-2.807299332e-29
-2.807299332e-29
-2.830508469e-29
-2.830508469e-29
-2.830508469e-29
-2.830508469e-29
-2.830508469e-29
-2.830508469e-29
-2.830508469e-29
-2.830508469e-29
-2.830508469e-29
-2.830508469e-29
-2.830508469e-29
-2.830508469e-29
-2.830508469e-29
-2.830508469e-29
-2.830508469e-29
-2.830508469e-29
-2.830508469e-29
-2.830508469e-29
-2.830508469e-29
-2.830508469e-29
-2.830508469e-29
-2.830508469e-29
-2.830508469e-29
-2.830508469e-29
-2.830508469e-29
-2.830508469e-29
-2.830508469e-29
-2.830508469e-29
-2.830508469e-29
-2.830508469e-29
-2.830508469e-29
-2.830508469e-29
-2.830508469e-29
-2.830508469e-29
-2.830508469e-29
-2.830508469e-29
-2.830508469e-29
-2.830508469e-29
-2.830508469e-29
-2.830508469e-29
-2.830508469e-29
-2.830508469e-29
-2.830508469e-29
-2.830508469e-29
-2.830508469e-29
-2.830508469e-29
-2.830508469e-29
-2.830508469e-29
-2.830508469e-29
-2.830508469e-29
-2.853927786e-29
-2.853927786e-29
-2.853927786e-29
-2.853927786e-29
-2.853927786e-29
-2.853927786e-29
-2.853927786e-29
-2.853927786e-29
-2.853927786e-29
-2.853927786e-29
-2.853927786e-29
-2.853927786e-29
-2.853927786e-29
-2.853927786e-29
-2.853927786e-29
-2.853927786e-29
-2.853927786e-29
-2.853927786e-29
-2.853927786e-29
-2.853927786e-29
-2.853927786e-29
-2.853927786e-29
-2.853927786e-29
-2.853927786e-29
-2.853927786e-29
-2.853927786e-29
-2.853927786e-29
-2.853927786e-29
-2.853927786e-29
-2.853927786e-29
-2.853927786e-29
-2.853927786e-29
-2.853927786e-29
-2.853927786e-29
-2.853927786e-29
-2.853927786e-29
-2.853927786e-29
-2.853927786e-29
-2.853927786e-29
-2.853927786e-29
-2.853927786e-29
-2.853927786e-29
-2.853927786e-29
-2.853927786e-29
-2.853927786e-29
-2.853927786e-29
-2.853927786e-29
-2.853927786e-29
-2.853927786e-29
-2.853927786e-29
-2.877559435e-29
-2.877559435e-29
-2.877559435e-29
-2.877559435e-29
-2.877559435e-29
-2.877559435e-29
-2.877559435e-29
-2.877559435e-29
-2.877559435e-29
-2.877559435e-29
-2.877559435e-29
-2.877559435e-29
-2.877559435e-29
-2.877559435e-29
-2.877559435e-29
-2.877559435e-29
-2.877559435e-29
-2.877559435e-29
-2.877559435e-29
-2.877559435e-29
-2.877559435e-29
-2.877559435e-29
-2.877559435e-29
-2.877559435e-29
-2.877559435e-29
-2.877559435e-29
-2.877559435e-29
-2.877559435e-29
-2.877559435e-29
-2.877559435e-29
-2.877559435e-29
-2.877559435e-29
-2.877559435e-29
-2.877559435e-29
-2.877559435e-29
-2.877559435e-29
-2.877559435e-29
-2.877559435e-29
-2.877559435e-29
-2.877559435e-29
-2.877559435e-29
-2.877559435e-29
-2.877559435e-29
-2.877559435e-29
-2.877559435e-29
-2.877559435e-29
-2.877559435e-29
-2.877559435e-29
-2.877559435e-29
-2.877559435e-29
-2.901405592e-29
-2.901405592e-29
-2.901405592e-29
-2.901405592e-29
-2.901405592e-29
-2.901405592e-29
-2.901405592e-29
-2.901405592e-29
-2.901405592e-29
-2.901405592e-29
-2.901405592e-29
-2.901405592e-29
-2.901405592e-29
-2.901405592e-29
-2.901405592e-29
-2.901405592e-29
-2.901405592e-29
-2.901405592e-29
-2.901405592e-29
-2.901405592e-29
-2.901405592e-29
-2.901405592e-29
-2.901405592e-29
-2.901405592e-29
-2.901405592e-29
-2.901405592e-29
-2.901405592e-29
-2.901405592e-29
-2.901405592e-29