/*--------------------------------*- C++ -*----------------------------------*\
| =========                 |                                                 |
| \\      /  F ield         | OpenFOAM: The Open Source CFD Toolbox           |
|  \\    /   O peration     | Version:  2.3.1                                 |
|   \\  /    A nd           | Web:      www.OpenFOAM.org                      |
|    \\/     M anipulation  |                                                 |
\*---------------------------------------------------------------------------*/
FoamFile
{
    version     2.0;
    format      ascii;
    class       volScalarField;
    object      T;
}
// * * * * * * * * * * * * * * * * * * * * * * * * * * * * * * * * * * * * * //

dimensions      [0 0 0 1 0 0 0];

internalField  uniform 273;

boundaryField
{
    axis
    {
        type            empty;
    }

    inlet
    {
        type            fixedValue;
        value           uniform 273;
    }

    wall
    {
        type            fixedValue; 
 //       value           uniform 1573;

        value           nonuniform List<scalar>
       159
      (
/*
335.150000000000
368.150000000000
401.150000000000
411.150000000000
421.150000000000
425.150000000000
429.150000000000
435.150000000000
441.150000000000
426.650000000000
412.150000000000
429.150000000000
446.150000000000
474.650000000000
503.150000000000
554.650000000000
606.150000000000
664.650000000000
723.150000000000
787.650000000000
852.150000000000
941.650000000000
1031.15000000000
1092.65000000000
1154.15000000000
1188.65000000000
1223.15000000000
1261.15000000000
1299.15000000000
1333.15000000000
1367.15000000000
1385.65000000000
1404.15000000000
1418.15000000000
1432.15000000000
1442.65000000000
1453.15000000000
1461.65000000000
1470.15000000000
1477.15000000000
1484.15000000000
1490.65000000000
1497.15000000000
1502.15000000000
1507.15000000000
1510.65000000000
1514.15000000000
1517.15000000000
1520.15000000000
1523.65000000000
1527.15000000000
1529.65000000000
1532.15000000000
1534.65000000000
1537.15000000000
1540.15000000000
1543.15000000000
1545.15000000000
1547.15000000000
1548.65000000000
1550.15000000000
1551.65000000000
1553.15000000000
1554.65000000000
1556.15000000000
1557.15000000000
1558.15000000000
1559.15000000000
1560.15000000000
1560.65000000000
1561.15000000000
1562.15000000000
1563.15000000000
1563.65000000000
1564.15000000000
1565.15000000000
1566.15000000000
1566.65000000000
1567.15000000000
1567.65000000000
1568.15000000000
1568.65000000000
1569.15000000000
1569.65000000000
1570.15000000000
1570.65000000000
1571.15000000000
1571.65000000000
1572.15000000000
1572.15000000000
1572.15000000000
1572.65000000000
1573.15000000000
1573.65000000000
1574.15000000000
1574.15000000000
1574.15000000000
1574.65000000000
1575.15000000000
1575.15000000000
1575.15000000000
1575.15000000000
1575.15000000000
1575.15000000000
1575.15000000000
1575.15000000000
1575.15000000000
1575.15000000000
1575.15000000000
1574.65000000000
1574.15000000000
1574.15000000000
1574.15000000000
1573.65000000000
1573.15000000000
1572.15000000000
1571.15000000000
1570.65000000000
1570.15000000000
1569.15000000000
1568.15000000000
1566.65000000000
1565.15000000000
1563.65000000000
1562.15000000000
1560.65000000000
1559.15000000000
1556.65000000000
1554.15000000000
1551.65000000000
1549.15000000000
1546.15000000000
1543.15000000000
1538.65000000000
1534.15000000000
1530.15000000000
1526.15000000000
1519.65000000000
1513.15000000000
1504.15000000000
1495.15000000000
1488.15000000000
1481.15000000000
1472.15000000000
1463.15000000000
1452.65000000000
1442.15000000000
1430.15000000000
1418.15000000000
1402.65000000000
1387.15000000000
1358.65000000000
1330.15000000000
1283.65000000000
1237.15000000000
1180.65000000000
1124.15000000000
1072.65000000000
1021.15000000000
*/
/*
800
800
800
800
800
800
800
800
800
800
800
800
800
800
800
800
800
800
800
800
800
800
800
800
800
800
800
800
800
800
800
800
800
800
800
800
800
800
800
800
800
800
800
800
800
800
800
800
800
800
800
800
800
800
800
800
800
800
800
800
800
800
800
800
800
800
800
800
800
800
800
800
800
800
800
800
800
800
800
800
800
800
800
800
800
800
800
800
800
800
800
800
800
800
800
800
800
800
800
800
800
800
800
800
800
800
800
800
800
800
800
800
800
800
800
800
800
800
800
800
800
800
800
800
800
800
800
800
800
800
800
800
800
800
800
800
800
800
800
800
800
800
800
800
800
800
800
800
800
800
800
800
800
800
800
800
800
800
800
*/



1773
1770.037736
1767.075472
1764.113208
1761.150943
1758.188679
1755.226415
1752.264151
1749.301887
1746.339623
1743.377358
1740.415094
1737.45283
1734.490566
1731.528302
1728.566038
1725.603774
1722.641509
1719.679245
1716.716981
1713.754717
1710.792453
1707.830189
1704.867925
1701.90566
1698.943396
1695.981132
1693.018868
1690.056604
1687.09434
1684.132075
1681.169811
1678.207547
1675.245283
1672.283019
1669.320755
1666.358491
1663.396226
1660.433962
1657.471698
1654.509434
1651.54717
1648.584906
1645.622642
1642.660377
1639.698113
1636.735849
1633.773585
1630.811321
1627.849057
1624.886792
1621.924528
1618.962264
1616
1613.037736
1610.075472
1607.113208
1604.150943
1601.188679
1598.226415
1595.264151
1592.301887
1589.339623
1586.377358
1583.415094
1580.45283
1577.490566
1574.528302
1571.566038
1568.603774
1565.641509
1562.679245
1559.716981
1556.754717
1553.792453
1550.830189
1547.867925
1544.90566
1541.943396
1538.981132
1536.018868
1533.056604
1530.09434
1527.132075
1524.169811
1521.207547
1518.245283
1515.283019
1512.320755
1509.358491
1506.396226
1503.433962
1500.471698
1497.509434
1494.54717
1491.584906
1488.622642
1485.660377
1482.698113
1479.735849
1476.773585
1473.811321
1470.849057
1467.886792
1464.924528
1461.962264
1459
1456.037736
1453.075472
1450.113208
1447.150943
1444.188679
1441.226415
1438.264151
1435.301887
1432.339623
1429.377358
1426.415094
1423.45283
1420.490566
1417.528302
1414.566038
1411.603774
1408.641509
1405.679245
1402.716981
1399.754717
1396.792453
1393.830189
1390.867925
1387.90566
1384.943396
1381.981132
1379.018868
1376.056604
1373.09434
1370.132075
1367.169811
1364.207547
1361.245283
1358.283019
1355.320755
1352.358491
1349.396226
1346.433962
1343.471698
1340.509434
1337.54717
1334.584906
1331.622642
1328.660377
1325.698113
1322.735849
1319.773585
1316.811321
1313.849057
1310.886792
1307.924528
1304.962264
       );
        



    }
    outlet
    {
        type            zeroGradient;
    }
   front
    {
        type            wedge;
    }
   back
    {
        type            wedge;
    }

}

//**************************************************************************** //
