/*--------------------------------*- C++ -*----------------------------------*\
| =========                 |                                                 |
| \\      /  F ield         | OpenFOAM: The Open Source CFD Toolbox           |
|  \\    /   O peration     | Version:  2.3.1                                 |
|   \\  /    A nd           | Web:      www.OpenFOAM.org                      |
|    \\/     M anipulation  |                                                 |
\*---------------------------------------------------------------------------*/
FoamFile
{
    version     2.0;
    format      ascii;
    class       volScalarField;
    object      T;
}
// * * * * * * * * * * * * * * * * * * * * * * * * * * * * * * * * * * * * * //

dimensions      [0 0 0 1 0 0 0];

internalField  uniform 273;

boundaryField
{
    axis
    {
        type            empty;
    }

    inlet
    {
        type            fixedValue;
        value           uniform 273;
    }

    wall
    {
        type            fixedValue; 
 //       value           uniform 1573;

        value           nonuniform List<scalar>
       159
      (

335.150000000000
368.150000000000
401.150000000000
411.150000000000
421.150000000000
425.150000000000
429.150000000000
435.150000000000
441.150000000000
426.650000000000
412.150000000000
429.150000000000
446.150000000000
474.650000000000
503.150000000000
554.650000000000
606.150000000000
664.650000000000
723.150000000000
787.650000000000
852.150000000000
941.650000000000
1031.15000000000
1092.65000000000
1154.15000000000
1188.65000000000
1223.15000000000
1261.15000000000
1299.15000000000
1333.15000000000
1367.15000000000
1385.65000000000
1404.15000000000
1418.15000000000
1432.15000000000
1442.65000000000
1453.15000000000
1461.65000000000
1470.15000000000
1477.15000000000
1484.15000000000
1490.65000000000
1497.15000000000
1502.15000000000
1507.15000000000
1510.65000000000
1514.15000000000
1517.15000000000
1520.15000000000
1523.65000000000
1527.15000000000
1529.65000000000
1532.15000000000
1534.65000000000
1537.15000000000
1540.15000000000
1543.15000000000
1545.15000000000
1547.15000000000
1548.65000000000
1550.15000000000
1551.65000000000
1553.15000000000
1554.65000000000
1556.15000000000
1557.15000000000
1558.15000000000
1559.15000000000
1560.15000000000
1560.65000000000
1561.15000000000
1562.15000000000
1563.15000000000
1563.65000000000
1564.15000000000
1565.15000000000
1566.15000000000
1566.65000000000
1567.15000000000
1567.65000000000
1568.15000000000
1568.65000000000
1569.15000000000
1569.65000000000
1570.15000000000
1570.65000000000
1571.15000000000
1571.65000000000
1572.15000000000
1572.15000000000
1572.15000000000
1572.65000000000
1573.15000000000
1573.65000000000
1574.15000000000
1574.15000000000
1574.15000000000
1574.65000000000
1575.15000000000
1575.15000000000
1575.15000000000
1575.15000000000
1575.15000000000
1575.15000000000
1575.15000000000
1575.15000000000
1575.15000000000
1575.15000000000
1575.15000000000
1574.65000000000
1574.15000000000
1574.15000000000
1574.15000000000
1573.65000000000
1573.15000000000
1572.15000000000
1571.15000000000
1570.65000000000
1570.15000000000
1569.15000000000
1568.15000000000
1566.65000000000
1565.15000000000
1563.65000000000
1562.15000000000
1560.65000000000
1559.15000000000
1556.65000000000
1554.15000000000
1551.65000000000
1549.15000000000
1546.15000000000
1543.15000000000
1538.65000000000
1534.15000000000
1530.15000000000
1526.15000000000
1519.65000000000
1513.15000000000
1504.15000000000
1495.15000000000
1488.15000000000
1481.15000000000
1472.15000000000
1463.15000000000
1452.65000000000
1442.15000000000
1430.15000000000
1418.15000000000
1402.65000000000
1387.15000000000
1358.65000000000
1330.15000000000
1283.65000000000
1237.15000000000
1180.65000000000
1124.15000000000
1072.65000000000
1021.15000000000

/*
800
800
800
800
800
800
800
800
800
800
800
800
800
800
800
800
800
800
800
800
800
800
800
800
800
800
800
800
800
800
800
800
800
800
800
800
800
800
800
800
800
800
800
800
800
800
800
800
800
800
800
800
800
800
800
800
800
800
800
800
800
800
800
800
800
800
800
800
800
800
800
800
800
800
800
800
800
800
800
800
800
800
800
800
800
800
800
800
800
800
800
800
800
800
800
800
800
800
800
800
800
800
800
800
800
800
800
800
800
800
800
800
800
800
800
800
800
800
800
800
800
800
800
800
800
800
800
800
800
800
800
800
800
800
800
800
800
800
800
800
800
800
800
800
800
800
800
800
800
800
800
800
800
800
800
800
800
800
800
*/
       );
        



    }
    outlet
    {
        type            zeroGradient;
    }
   front
    {
        type            wedge;
    }
   back
    {
        type            wedge;
    }

}

// ************************************************************************* //
