/*--------------------------------*- C++ -*----------------------------------*\
| =========                 |                                                 |
| \\      /  F ield         | OpenFOAM: The Open Source CFD Toolbox           |
|  \\    /   O peration     | Version:  5.x                                   |
|   \\  /    A nd           | Web:      www.OpenFOAM.org                      |
|    \\/     M anipulation  |                                                 |
\*---------------------------------------------------------------------------*/
FoamFile
{
    version     2.0;
    format      ascii;
    class       surfaceScalarField;
    location    "0.06";
    object      phiAir;
}
// * * * * * * * * * * * * * * * * * * * * * * * * * * * * * * * * * * * * * //

dimensions      [1 0 -1 0 0 0 0];

internalField   nonuniform List<scalar> 
15691
(
-5.467946481e-11
1.932228407e-10
-2.210889496e-10
5.820396569e-10
-4.997967525e-10
9.714246874e-10
-8.904818987e-10
1.360488586e-09
-1.392839944e-09
1.749248617e-09
-2.006547107e-09
2.137684323e-09
-2.731220461e-09
2.52573753e-09
-3.566392897e-09
2.91332263e-09
-4.511533938e-09
3.300378805e-09
-5.566010409e-09
3.686800298e-09
-6.729061411e-09
4.072461988e-09
-7.999778713e-09
4.457215131e-09
-9.377076452e-09
4.840881771e-09
-1.085965223e-08
5.223247643e-09
-1.244594798e-08
5.604053453e-09
-1.413408743e-08
5.982984324e-09
-1.59218138e-08
6.359657212e-09
-1.780640148e-08
6.733606038e-09
-1.978456033e-08
7.104264283e-09
-2.185231338e-08
7.470944952e-09
-2.400485271e-08
7.832817402e-09
-2.623636874e-08
8.188881101e-09
-2.853985374e-08
8.537937148e-09
-3.09068733e-08
8.878557982e-09
-3.332730062e-08
9.209052604e-09
-3.578901798e-08
9.527429766e-09
-3.827758032e-08
9.831361223e-09
-4.077583871e-08
1.011814464e-08
-4.326349295e-08
1.038462618e-08
-4.571665489e-08
1.062722082e-08
-4.810760543e-08
1.08420974e-08
-5.040401969e-08
1.102464713e-08
-5.256838418e-08
1.116968382e-08
-5.455768839e-08
1.127171064e-08
-5.632186547e-08
1.132367022e-08
-5.780394088e-08
1.131865515e-08
-5.894521487e-08
1.125494097e-08
-5.967575633e-08
1.112129354e-08
-5.99158818e-08
1.090796576e-08
-5.958108582e-08
1.061013059e-08
-5.857937614e-08
1.022030424e-08
-5.681088026e-08
9.730604198e-09
-5.416742961e-08
9.13273613e-09
-5.053209421e-08
8.417938429e-09
-4.57786049e-08
7.576870709e-09
-3.977058443e-08
6.599426246e-09
-3.236051157e-08
5.474461578e-09
-2.338837244e-08
4.18948179e-09
-1.267963476e-08
2.72996971e-09
1.036159547e-09
-4.758221016e-12
1.979810629e-10
-1.517607962e-11
5.924575504e-10
-3.025628651e-11
9.865048272e-10
-5.03710513e-11
1.380603351e-09
-7.580027944e-11
1.77467778e-09
-1.067815686e-10
2.168665655e-09
-1.435695419e-10
2.562525538e-09
-1.864558218e-10
2.95620896e-09
-2.356765446e-10
3.349599529e-09
-2.914792806e-10
3.742603085e-09
-3.541180501e-10
4.135100581e-09
-4.238442792e-10
4.526941553e-09
-5.008988583e-10
4.917936118e-09
-5.85497322e-10
5.307846053e-09
-6.778177958e-10
5.696373996e-09
-7.779844189e-10
6.083151015e-09
-8.860493899e-10
6.467722104e-09
-1.001972652e-09
6.849529415e-09
-1.125602199e-09
7.227893771e-09
-1.256651196e-09
7.601994152e-09
-1.394740272e-09
7.970906671e-09
-1.539254142e-09
8.33339521e-09
-1.68925183e-09
8.687934379e-09
-1.84368821e-09
9.032994695e-09
-2.001400249e-09
9.366764816e-09
-2.160913696e-09
9.686943111e-09
-2.320525525e-09
9.99097352e-09
-2.478322119e-09
1.02759411e-08
-2.632288981e-09
1.053859283e-08
-2.780287138e-09
1.077521927e-08
-2.919760331e-09
1.098157084e-08
-3.048196881e-09
1.115308389e-08
-3.162810136e-09
1.128429699e-08
-3.260098213e-09
1.136899894e-08
-3.336959006e-09
1.140053068e-08
-3.390027654e-09
1.137172367e-08
-3.410119335e-09
1.12750325e-08
-3.391124828e-09
1.110229957e-08
-3.329842268e-09
1.084668259e-08
-3.221771982e-09
1.050206099e-08
-3.063376122e-09
1.006190795e-08
-2.852331595e-09
9.519559262e-09
-2.587939989e-09
8.868345219e-09
-2.271715309e-09
8.101713276e-09
-1.90818866e-09
7.213343637e-09
-1.50601187e-09
6.197249728e-09
-1.079403709e-09
5.047853759e-09
-6.499040804e-10
3.759982126e-09
-2.485480704e-10
2.328614498e-09
7.876109288e-10
-8.568913119e-12
2.065499737e-10
-3.682218673e-11
6.20710839e-10
-8.542821499e-11
1.03511082e-09
-1.54173498e-10
1.449348653e-09
-2.429070305e-10
1.863411336e-09
-3.514969415e-10
2.277255559e-09
-4.797577038e-10
2.690786294e-09
-6.274546389e-10
3.103905929e-09
-7.943521608e-10
3.516496803e-09
-9.801285989e-10
3.928379644e-09
-1.18435543e-09
4.339327465e-09
-1.406470188e-09
4.749056197e-09
-1.645722001e-09
5.157188151e-09
-1.901221253e-09
5.563345048e-09
-2.171855258e-09
5.967008256e-09
-2.456198659e-09
6.367494356e-09
-2.752557454e-09
6.764080716e-09
-3.05890624e-09
7.155878252e-09
-3.372853562e-09
7.541840899e-09
-3.691605587e-09
7.920746009e-09
-4.011810836e-09
8.291112192e-09
-4.329745698e-09
8.651330029e-09
-4.641529598e-09
8.999718604e-09
-4.942542736e-09
9.334007861e-09
-5.227460941e-09
9.651683033e-09
-5.490637995e-09
9.950119912e-09
-5.725961218e-09
1.022629653e-08
-5.926931505e-09
1.047691179e-08
-6.086681269e-09
1.069834275e-08
-6.198561118e-09
1.08870993e-08
-6.25629586e-09
1.10393053e-08
-6.253999507e-09
1.115078719e-08
-6.18677596e-09
1.121707359e-08
-6.051256211e-09
1.12334788e-08
-5.845886629e-09
1.119516144e-08
-5.571358105e-09
1.109719495e-08
-5.230855306e-09
1.093452994e-08
-4.830877368e-09
1.07023212e-08
-4.379643825e-09
1.039544979e-08
-3.885730064e-09
1.000814694e-08
-3.359064997e-09
9.535242683e-09
-2.811475594e-09
8.97197039e-09
-2.257175728e-09
8.314045435e-09
-1.71320995e-09
7.557747358e-09
-1.19985254e-09
6.699986664e-09
-7.40945802e-10
5.738342716e-09
-3.641460055e-10
4.671053858e-09
-1.011101104e-10
3.49694671e-09
1.216336018e-11
2.215340578e-09
7.99774326e-10
-1.088587187e-11
2.174358397e-10
-4.158023945e-11
6.51405219e-10
-9.152522942e-11
1.085055797e-09
-1.607920781e-10
1.518615484e-09
-2.4935301e-10
1.951972298e-09
-3.570990115e-10
2.385001583e-09
-4.838805231e-10
2.817567851e-09
-6.294622938e-10
3.249487634e-09
-7.93482284e-10
3.680516813e-09
-9.754675575e-10
4.110365031e-09
-1.174817748e-09
4.538677548e-09
-1.39078259e-09
4.965020992e-09
-1.622491868e-09
5.388897426e-09
-1.86876961e-09
5.809622683e-09
-2.128217979e-09
6.226456787e-09
-2.399297427e-09
6.638574205e-09
-2.680140547e-09
7.044923519e-09
-2.968580146e-09
7.44431793e-09
-3.262130474e-09
7.835391168e-09
-3.557965691e-09
8.216581134e-09
-3.852966723e-09
8.586113499e-09
-4.143622616e-09
8.941985683e-09
-4.425855723e-09
9.281951763e-09
-4.695358782e-09
9.603510615e-09
-4.947573255e-09
9.903897634e-09
-5.177548425e-09
1.01800951e-08
-5.380048413e-09
1.042879653e-08
-5.549615681e-09
1.064647893e-08
-5.680835225e-09
1.082956268e-08
-5.768448619e-09
1.097471225e-08
-5.807504428e-09
1.107836106e-08
-5.793588044e-09
1.11368709e-08
-5.723437303e-09
1.114692334e-08
-5.595157737e-09
1.110519931e-08
-5.40843256e-09
1.100843611e-08
-5.164724075e-09
1.085348674e-08
-4.867566439e-09
1.063737225e-08
-4.522510022e-09
1.035726493e-08
-4.136088098e-09
1.000902734e-08
-3.71619438e-09
9.588253423e-09
-3.271774801e-09
9.090823584e-09
-2.812755501e-09
8.512951166e-09
-2.349906873e-09
7.851196981e-09
-1.894629167e-09
7.102470096e-09
-1.4586557e-09
6.264012827e-09
-1.053682022e-09
5.333368571e-09
-6.909624015e-10
4.308334655e-09
-3.809130702e-10
3.186897508e-09
-1.32693468e-10
1.967120788e-09
6.670806285e-10
-8.618771961e-12
2.260546122e-10
-3.593175918e-11
6.787182088e-10
-8.216949723e-11
1.131293543e-09
-1.469362802e-10
1.583382281e-09
-2.29760378e-10
2.034796417e-09
-3.300681782e-10
2.485309404e-09
-4.471384634e-10
2.934638084e-09
-5.801121082e-10
3.382461333e-09
-7.279951731e-10
3.828399838e-09
-8.896313349e-10
4.272001173e-09
-1.063683546e-09
4.712729767e-09
-1.248622548e-09
5.149959934e-09
-1.44269045e-09
5.582965411e-09
-1.64397614e-09
6.010908474e-09
-1.850348749e-09
6.432829467e-09
-2.059411052e-09
6.847636369e-09
-2.268582332e-09
7.254095052e-09
-2.475085307e-09
7.650820611e-09
-2.67596354e-09
8.036269363e-09
-2.86811455e-09
8.40873241e-09
-3.048332464e-09
8.766331461e-09
-3.213364039e-09
9.107017313e-09
-3.359979643e-09
9.428567615e-09
-3.485084524e-09
9.728615178e-09
-3.58577144e-09
1.000458461e-08
-3.659687899e-09
1.025401139e-08
-3.705187564e-09
1.047429645e-08
-3.7213568e-09
1.066264815e-08
-3.708201803e-09
1.081640761e-08
-3.665801889e-09
1.09323122e-08
-3.594620522e-09
1.100718036e-08
-3.495558954e-09
1.103780957e-08
-3.369641072e-09
1.102100519e-08
-3.218031994e-09
1.095359085e-08
-3.042016857e-09
1.083242084e-08
-2.842922425e-09
1.065439249e-08
-2.622006936e-09
1.041645649e-08
-2.38036552e-09
1.011562296e-08
-2.120298962e-09
9.74896153e-09
-1.845692626e-09
9.313647112e-09
-1.561879958e-09
8.807010626e-09
-1.275505871e-09
8.226576974e-09
-9.943998343e-10
7.570090552e-09
-7.274573195e-10
6.835528065e-09
-4.845429757e-10
6.021098259e-09
-2.764017246e-10
5.125227385e-09
-1.145953891e-10
4.146527453e-09
-1.144675045e-11
3.083748906e-09
1.992946445e-11
1.935745508e-09
6.870095859e-10
-1.020698549e-11
2.36261596e-10
-3.968317376e-11
7.081944082e-10
-8.792918257e-11
1.179539562e-09
-1.546617036e-10
1.650114775e-09
-2.394131585e-10
2.119547874e-09
-3.415426723e-10
2.587438863e-09
-4.602638469e-10
3.053359305e-09
-5.946103518e-10
3.516807708e-09
-7.434322168e-10
3.977221701e-09
-9.054023222e-10
4.433971313e-09
-1.079015649e-09
4.8863431e-09
-1.262586648e-09
5.333531013e-09
-1.454248944e-09
5.774627759e-09
-1.651957334e-09
6.208616846e-09
-1.853493192e-09
6.63436535e-09
-2.056474789e-09
7.050617969e-09
-2.258371882e-09
7.45599217e-09
-2.45652619e-09
7.848974874e-09
-2.648177766e-09
8.227920957e-09
-2.830498972e-09
8.591053542e-09
-3.000633188e-09
8.936465788e-09
-3.15574517e-09
9.262129059e-09
-3.293082504e-09
9.565905003e-09
-3.410041016e-09
9.845573981e-09
-3.504284737e-09
1.009882799e-08
-3.573883744e-09
1.032361068e-08
-3.617411419e-09
1.051782407e-08
-3.634126832e-09
1.067936336e-08
-3.623463857e-09
1.080574483e-08
-3.58528176e-09
1.089413019e-08
-3.519764328e-09
1.094166228e-08
-3.427437121e-09
1.094548317e-08
-3.309182094e-09
1.090274988e-08
-3.166240887e-09
1.081064977e-08
-3.000235273e-09
1.066641484e-08
-2.813177769e-09
1.046733504e-08
-2.607491968e-09
1.02107704e-08
-2.386030498e-09
9.894161735e-09
-2.152108882e-09
9.51504028e-09
-1.909498244e-09
9.071036283e-09
-1.662372485e-09
8.559885245e-09
-1.415225099e-09
7.979429589e-09
-1.172748983e-09
7.327614889e-09
-9.397016085e-10
6.602480175e-09
-7.207463302e-10
5.8021425e-09
-5.202955254e-10
4.924776754e-09
-3.423613243e-10
3.968593339e-09
-1.90425193e-10
2.93181309e-09
-6.73025507e-11
1.812622772e-09
6.197068731e-10
-7.561138032e-12
2.438227339e-10
-3.093321373e-11
7.315664834e-10
-7.007438704e-11
1.218680706e-09
-1.245215361e-10
1.704561896e-09
-1.936731071e-10
2.188699451e-09
-2.767792733e-10
2.670545006e-09
-3.729204806e-10
3.149500585e-09
-4.810373024e-10
3.624924567e-09
-5.999326131e-10
4.096117034e-09
-7.282663105e-10
4.562305088e-09
-8.64563996e-10
5.022640723e-09
-1.007227073e-09
5.476194074e-09
-1.154546768e-09
5.921947445e-09
-1.304720058e-09
6.358790257e-09
-1.455869667e-09
6.785515027e-09
-1.606066139e-09
7.200814547e-09
-1.753354433e-09
7.603280323e-09
-1.895781897e-09
7.991402394e-09
-2.031431703e-09
8.363570652e-09
-2.158455942e-09
8.718077841e-09
-2.275114558e-09
9.053124642e-09
-2.379805983e-09
9.366820401e-09
-2.471101862e-09
9.657200858e-09
-2.547729772e-09
9.922201995e-09
-2.608865963e-09
1.015996418e-08
-2.653496909e-09
1.036824138e-08
-2.680464584e-09
1.054479198e-08
-2.688419789e-09
1.068731857e-08
-2.676140313e-09
1.079346559e-08
-2.642837835e-09
1.086082763e-08
-2.588145532e-09
1.088697015e-08
-2.512112044e-09
1.086944938e-08
-2.415193025e-09
1.080583104e-08
-2.298251548e-09
1.069370798e-08
-2.162552926e-09
1.053071666e-08
-2.009770284e-09
1.031455232e-08
-1.841982413e-09
1.004298269e-08
-1.6616809e-09
9.713860054e-09
-1.471772514e-09
9.325131482e-09
-1.275583173e-09
8.87484697e-09
-1.076862752e-09
8.361165193e-09
-8.797903751e-10
7.782356431e-09
-6.88977445e-10
7.136802465e-09
-5.094898558e-10
6.422992974e-09
-3.468662606e-10
5.639518276e-09
-2.071469964e-10
4.785057656e-09
-9.691539036e-11
3.858361515e-09
-2.333007753e-11
2.858227673e-09
5.807324518e-12
1.783485557e-09
6.255140858e-10
-7.385370056e-12
2.51208106e-10
-2.894199985e-11
7.531231067e-10
-6.429587582e-11
1.254034574e-09
-1.130930274e-10
1.753359068e-09
-1.748071606e-10
2.250413583e-09
-2.487521857e-10
2.744489995e-09
-3.341025033e-10
3.234850913e-09
-4.298766211e-10
3.72069867e-09
-5.349513112e-10
4.201191784e-09
-6.480766929e-10
4.675430469e-09
-7.67886182e-10
5.142450214e-09
-8.929089251e-10
5.601216844e-09
-1.021583836e-09
6.050622468e-09
-1.152276093e-09
6.489482426e-09
-1.28329416e-09
6.916533246e-09
-1.412911454e-09
7.330431663e-09
-1.539385799e-09
7.729754717e-09
-1.660984543e-09
8.113000937e-09
-1.776006139e-09
8.478592499e-09
-1.882806469e-09
8.824877916e-09
-1.979817879e-09
9.150136311e-09
-2.065590411e-09
9.452592425e-09
-2.138807362e-09
9.730417949e-09
-2.198434246e-09
9.981828718e-09
-2.24350604e-09
1.020503602e-08
-2.273228692e-09
1.039796402e-08
-2.286936941e-09
1.055850049e-08
-2.284121692e-09
1.068450302e-08
-2.264463169e-09
1.077380726e-08
-2.227872581e-09
1.082423687e-08
-2.174516258e-09
1.083361401e-08
-2.104837421e-09
1.079977044e-08
-2.019564876e-09
1.072055863e-08
-1.919719669e-09
1.059386235e-08
-1.806609069e-09
1.041760642e-08
-1.681821911e-09
1.018976503e-08
-1.547207415e-09
9.90836861e-09
-1.404856629e-09
9.571508713e-09
-1.257065507e-09
9.177340712e-09
-1.106302731e-09
8.724084178e-09
-9.551582653e-10
8.210020734e-09
-8.062912696e-10
7.633489363e-09
-6.623679699e-10
6.992879275e-09
-5.259956319e-10
6.286620446e-09
-3.996494328e-10
5.513172208e-09
-2.8560269e-10
4.671010459e-09
-1.858554296e-10
3.758614803e-09
-1.020830657e-10
2.774455501e-09
-3.556938752e-11
1.716971572e-09
5.899448659e-10
-5.402633179e-12
2.566107387e-10
-2.192094753e-11
7.696414104e-10
-4.945241204e-11
1.281566044e-09
-8.763552292e-11
1.791542185e-09
-1.359905049e-10
2.298768618e-09
-1.939174524e-10
2.802416922e-09
-2.606891191e-10
3.301622498e-09
-3.354820363e-10
3.79549166e-09
-4.173719617e-10
4.283081724e-09
-5.053416771e-10
4.763400229e-09
-5.982926276e-10
5.235401066e-09
-6.950564715e-10
5.697980666e-09
-7.944090689e-10
6.149974976e-09
-8.950838969e-10
6.590157264e-09
-9.95787472e-10
7.017236786e-09
-1.095214157e-09
7.429858317e-09
-1.192061999e-09
7.826602583e-09
-1.285048795e-09
8.205987571e-09
-1.372927022e-09
8.566470787e-09
-1.454501817e-09
8.906452685e-09
-1.528644528e-09
9.224279006e-09
-1.594293771e-09
9.518241756e-09
-1.650468788e-09
9.786593227e-09
-1.696270897e-09
1.002763061e-08
-1.730703301e-09
1.023946853e-08
-1.752944003e-09
1.042020496e-08
-1.762348489e-09
1.0567905e-08
-1.758457572e-09
1.068061176e-08
-1.741005765e-09
1.075635557e-08
-1.709932199e-09
1.079316338e-08
-1.665385714e-09
1.078906757e-08
-1.607730036e-09
1.074211434e-08
-1.537544202e-09
1.065037271e-08
-1.455625155e-09
1.051194352e-08
-1.362986132e-09
1.032496769e-08
-1.260853648e-09
1.008763272e-08
-1.150663571e-09
9.798178126e-09
-1.03405444e-09
9.454899537e-09
-9.128654222e-10
9.056151665e-09
-7.891310622e-10
8.600349816e-09
-6.650805511e-10
8.085969979e-09
-5.43138462e-10
7.511547531e-09
-4.259334154e-10
6.875674523e-09
-3.163088222e-10
6.176995397e-09
-2.173372159e-10
5.41420122e-09
-1.323496784e-10
4.586022002e-09
-6.495067053e-11
3.691216372e-09
-1.905414473e-11
2.728558854e-09
1.085627544e-12
1.696831666e-09
5.910305884e-10
-4.864843783e-12
2.614755818e-10
-1.914495699e-11
7.839215301e-10
-4.259304443e-11
1.305014122e-09
-7.493031973e-11
1.823879472e-09
-1.15754066e-10
2.339592354e-09
-1.64547911e-10
2.851210782e-09
-2.206948326e-10
3.357769432e-09
-2.834688252e-10
3.858265623e-09
-3.520527618e-10
4.351665702e-09
-4.255487247e-10
4.836896245e-09
-5.029882612e-10
5.312840513e-09
-5.833431117e-10
5.778335582e-09
-6.655383215e-10
6.232170158e-09
-7.484640412e-10
6.673083096e-09
-8.309900709e-10
7.099762698e-09
-9.119782824e-10
7.510846712e-09
-9.902988811e-10
7.904923151e-09
-1.064843249e-09
8.280531807e-09
-1.134538488e-09
8.636166233e-09
-1.198362483e-09
8.970276366e-09
-1.255362868e-09
9.281279476e-09
-1.304684377e-09
9.56756352e-09
-1.345637922e-09
9.827546507e-09
-1.377580555e-09
1.005957306e-08
-1.399981934e-09
1.026187019e-08
-1.41242197e-09
1.043264492e-08
-1.414605809e-09
1.057008865e-08
-1.406377349e-09
1.06723838e-08
-1.387732772e-09
1.073771081e-08
-1.358825112e-09
1.076425577e-08
-1.319981674e-09
1.075022411e-08
-1.271659591e-09
1.069379249e-08
-1.214459666e-09
1.059317262e-08
-1.149123954e-09
1.044660757e-08
-1.076535065e-09
1.025237914e-08
-9.97712853e-10
1.000881048e-08
-9.138030698e-10
9.714268322e-09
-8.260674961e-10
9.36716371e-09
-7.358668237e-10
8.965951388e-09
-6.446445285e-10
8.509127538e-09
-5.539009783e-10
7.995226103e-09
-4.65166617e-10
7.422813499e-09
-3.799785655e-10
6.790485781e-09
-2.998221471e-10
6.096838859e-09
-2.261040436e-10
5.340483227e-09
-1.601139098e-10
4.520031851e-09
-1.029932042e-10
3.634095755e-09
-5.571054579e-11
2.681276683e-09
-1.903482749e-11
1.66015542e-09
5.719959926e-10
-3.504471705e-12
2.649800523e-10
-1.416149017e-11
7.945785505e-10
-3.188195083e-11
1.322734575e-09
-5.642218583e-11
1.84841971e-09
-8.745554769e-11
2.370625756e-09
-1.245717923e-10
2.888326958e-09
-1.672778769e-10
3.40047548e-09
-2.150149808e-10
3.906002741e-09
-2.671574032e-10
4.403808114e-09
-3.230200193e-10
4.892758872e-09
-3.818668358e-10
5.371687418e-09
-4.429204002e-10
5.839389097e-09
-5.053707823e-10
6.294620561e-09
-5.683864186e-10
6.736098719e-09
-6.311241809e-10
7.162500334e-09
-6.927396892e-10
7.572462181e-09
-7.523984402e-10
7.964581849e-09
-8.092858234e-10
8.33741915e-09
-8.626179985e-10
8.689498325e-09
-9.116516854e-10
9.019310206e-09
-9.556833647e-10
9.325311016e-09
-9.940631857e-10
9.605943485e-09
-1.026175235e-09
9.859658409e-09
-1.051408194e-09
1.008480611e-08
-1.069263545e-09
1.027972547e-08
-1.079355949e-09
1.044273761e-08
-1.081419987e-09
1.057215249e-08
-1.075310607e-09
1.066627422e-08
-1.06100681e-09
1.072340715e-08
-1.038612128e-09
1.074186097e-08
-1.008350187e-09
1.0719962e-08
-9.705396047e-10
1.0655982e-08
-9.256096338e-10
1.054824259e-08
-8.740938542e-10
1.039509167e-08
-8.166305675e-10
1.019491578e-08
-7.539640378e-10
9.946143971e-09
-6.869449304e-10
9.647249272e-09
-6.165305879e-10
9.296748966e-09
-5.437826023e-10
8.893204006e-09
-4.698716789e-10
8.43521718e-09
-3.960763993e-10
7.921430147e-09
-3.237818232e-10
7.350519496e-09
-2.54477238e-10
6.721181174e-09
-1.897863814e-10
6.032148368e-09
-1.314328788e-10
5.282128851e-09
-8.126110742e-11
4.469860774e-09
-4.126061808e-11
3.5940951e-09
-1.357195073e-11
2.653588094e-09
-5.13286917e-13
1.647096374e-09
5.714828787e-10
-3.064922712e-12
2.680449741e-10
-1.209109678e-11
8.036047298e-10
-2.692138017e-11
1.337564862e-09
-4.736190437e-11
1.86886022e-09
-7.313686157e-11
2.39640068e-09
-1.038967201e-10
2.919086834e-09
-1.392254658e-10
3.435804289e-09
-1.78640342e-10
3.945417616e-09
-2.216006848e-10
4.446768463e-09
-2.67515021e-10
4.938673254e-09
-3.157487142e-10
5.419921121e-09
-3.656318587e-10
5.889272302e-09
-4.164682558e-10
6.345456987e-09
-4.675443566e-10
6.787174651e-09
-5.18138106e-10
7.213093923e-09
-5.6752871e-10
7.621852915e-09
-6.150069501e-10
8.012060031e-09
-6.598830908e-10
8.382295158e-09
-7.014963289e-10
8.731111639e-09
-7.392290716e-10
9.057043004e-09
-7.725225405e-10
9.358604401e-09
-8.009255612e-10
9.634346542e-09
-8.240222733e-10
9.882754776e-09
-8.414623314e-10
1.010224611e-08
-8.529626332e-10
1.029122589e-08
-8.583159607e-10
1.044809089e-08
-8.574014634e-10
1.057123792e-08
-8.50164792e-10
1.065903747e-08
-8.366141226e-10
1.070985624e-08
-8.168218866e-10
1.072206898e-08
-7.909116805e-10
1.069405169e-08
-7.591913365e-10
1.06242614e-08
-7.220862501e-10
1.051113791e-08
-6.801486631e-10
1.035315383e-08
-6.340368272e-10
1.014880353e-08
-5.844967529e-10
9.896604107e-09
-5.3234395e-10
9.595096335e-09
-4.784399954e-10
9.242844718e-09
-4.236725288e-10
8.838436702e-09
-3.689370063e-10
8.380481179e-09
-3.151125662e-10
7.867606367e-09
-2.630508829e-10
7.298457013e-09
-2.135669526e-10
6.671697651e-09
-1.674092545e-10
5.985990449e-09
-1.25312007e-10
5.240032105e-09
-8.796429093e-11
4.432512517e-09
-5.597102067e-11
3.562102126e-09
-2.985153225e-11
2.627468775e-09
-1.001764644e-11
1.62726271e-09
5.61465052e-10
-2.182314503e-12
2.702272894e-10
-8.797145985e-12
8.10219553e-10
-1.97815527e-11
1.348549262e-09
-3.498203995e-11
1.884060701e-09
-5.419115931e-11
2.415609819e-09
-7.714661939e-11
2.94204233e-09
-1.035337812e-10
3.462191467e-09
-1.329927535e-10
3.9748765e-09
-1.651215412e-10
4.478897311e-09
-1.994821301e-10
4.973033847e-09
-2.356054468e-10
5.456044539e-09
-2.72998317e-10
5.926665144e-09
-3.111492858e-10
6.383607916e-09
-3.495356087e-10
6.825561138e-09
-3.876309427e-10
7.251189086e-09
-4.249104396e-10
7.659132407e-09
-4.608593356e-10
8.048008927e-09
-4.949788962e-10
8.416414532e-09
-5.26792603e-10
8.7629254e-09
-5.558574078e-10
9.086107823e-09
-5.817792689e-10
9.384526163e-09
-6.041495319e-10
9.656717104e-09
-6.225704988e-10
9.901175699e-09
-6.367116993e-10
1.01163876e-08
-6.463130755e-10
1.030082722e-08
-6.511838336e-10
1.045296167e-08
-6.512027446e-10
1.057125659e-08
-6.463095328e-10
1.065414426e-08
-6.365013284e-10
1.070004811e-08
-6.218333428e-10
1.070740116e-08
-6.024328657e-10
1.067465083e-08
-5.784903696e-10
1.060031943e-08
-5.503029596e-10
1.048295031e-08
-5.182470442e-10
1.032109826e-08
-4.827751204e-10
1.011333134e-08
-4.444029057e-10
9.858231904e-09
-4.037036872e-10
9.554397356e-09
-3.612999419e-10
9.200440807e-09
-3.178548894e-10
8.794991515e-09
-2.74068362e-10
8.33669471e-09
-2.306754315e-10
7.824213538e-09
-1.884453579e-10
7.256227193e-09
-1.481790288e-10
6.631431544e-09
-1.107444073e-10
5.948555295e-09
-7.706345676e-11
5.206350703e-09
-4.811746441e-11
4.403566885e-09
-2.498191788e-11
3.538966569e-09
-8.797668477e-12
2.611283976e-09
-7.907887268e-13
1.619256609e-09
5.606737112e-10
-1.891942846e-12
2.721192326e-10
-7.476779225e-12
8.158043904e-10
-1.665912655e-11
1.357731619e-09
-2.931470772e-11
1.896716298e-09
-4.52670014e-11
2.431562123e-09
-6.429161116e-11
2.961066937e-09
-8.611868928e-11
3.484018516e-09
-1.104339511e-10
3.999191708e-09
-1.368886864e-10
4.505352043e-09
-1.651057554e-10
5.001251008e-09
-1.946861108e-10
5.485624875e-09
-2.252095378e-10
5.957188547e-09
-2.562404019e-10
6.414638799e-09
-2.873335752e-10
6.856654271e-09
-3.180402494e-10
7.281895714e-09
-3.479143398e-10
7.689006508e-09
-3.765187024e-10
8.076613238e-09
-4.03432562e-10
8.443328271e-09
-4.282590589e-10
8.787751986e-09
-4.506473872e-10
9.108496004e-09
-4.703003021e-10
9.404178951e-09
-4.869410127e-10
9.673357877e-09
-5.003321786e-10
9.914566771e-09
-5.102631093e-10
1.01263186e-08
-5.165463197e-10
1.030711039e-08
-5.190202653e-10
1.045543552e-08
-5.175449018e-10
1.056978103e-08
-5.120681703e-10
1.064866759e-08
-5.026375122e-10
1.069061767e-08
-4.894015968e-10
1.06941653e-08
-4.726065757e-10
1.065785581e-08
-4.525341595e-10
1.058024705e-08
-4.294935102e-10
1.045990984e-08
-4.038241481e-10
1.029542864e-08
-3.758949433e-10
1.008540195e-08
-3.461054514e-10
9.828442555e-09
-3.14885405e-10
9.523177398e-09
-2.826917066e-10
9.168247316e-09
-2.500064642e-10
8.762306473e-09
-2.173342907e-10
8.304021974e-09
-1.851915131e-10
7.792070936e-09
-1.541050693e-10
7.225140852e-09
-1.246010239e-10
6.60192725e-09
-9.717707862e-11
5.921131699e-09
-7.228596609e-11
5.181459241e-09
-5.033745902e-11
4.381618289e-09
-3.167902862e-11
3.520308457e-09
-1.662952592e-11
2.596234526e-09
-5.458823168e-12
1.608086154e-09
5.552147517e-10
-1.343871515e-12
2.734631027e-10
-5.407367316e-12
8.198678844e-10
-1.214687761e-11
1.364471163e-09
-2.146503951e-11
1.90603442e-09
-3.323020352e-11
2.443327291e-09
-4.727744896e-11
2.975114135e-09
-6.341124924e-11
3.500152366e-09
-8.141074708e-11
4.017191208e-09
-1.010275934e-10
4.524968881e-09
-1.21988593e-10
5.022212073e-09
-1.439987963e-10
5.507634963e-09
-1.667485813e-10
5.979938396e-09
-1.899191995e-10
6.437809531e-09
-2.131866243e-10
6.879921566e-09
-2.362247421e-10
7.304933976e-09
-2.58713316e-10
7.711495044e-09
-2.803518494e-10
8.098251773e-09
-3.008626617e-10
8.463839121e-09
-3.199909205e-10
8.80688037e-09
-3.374813709e-10
9.125986377e-09
-3.530469238e-10
9.419744295e-09
-3.664227105e-10
9.68673359e-09
-3.773810978e-10
9.925525381e-09
-3.857305923e-10
1.0134668e-08
-3.913074136e-10
1.031268699e-08
-3.939776566e-10
1.045810571e-08
-3.936447431e-10
1.056944806e-08
-3.902491568e-10
1.064527233e-08
-3.838004273e-10
1.068416883e-08
-3.74367199e-10
1.068473181e-08
-3.620721191e-10
1.064556062e-08
-3.470851543e-10
1.056526032e-08
-3.296188963e-10
1.044244367e-08
-3.09922879e-10
1.02757327e-08
-2.882805291e-10
1.006375984e-08
-2.650067645e-10
9.80516862e-09
-2.40443048e-10
9.498613884e-09
-2.149576205e-10
9.142761841e-09
-1.889412545e-10
8.736289784e-09
-1.628048138e-10
8.27788562e-09
-1.369809938e-10
7.766247264e-09
-1.119222716e-10
7.200081655e-09
-8.80993979e-11
6.578104394e-09
-6.600673559e-11
5.899038674e-09
-4.616134344e-11
5.161613931e-09
-2.910723529e-11
4.364564411e-09
-1.542987484e-11
3.506631351e-09
-5.75554319e-12
2.586559591e-09
-7.543861684e-13
1.603085571e-09
5.544603398e-10
-1.149302138e-12
2.746124018e-10
-4.547372452e-12
8.232659489e-10
-1.013741077e-11
1.370061215e-09
-1.784310695e-11
1.913740132e-09
-2.755658302e-11
2.453040749e-09
-3.91409201e-11
2.98669847e-09
-5.243179625e-11
3.513443181e-09
-6.723792854e-11
4.031997467e-09
-8.334562098e-11
4.541076496e-09
-1.005200715e-10
5.039386597e-09
-1.185097728e-10
5.525624558e-09
-1.370521154e-10
5.998480828e-09
-1.558763902e-10
6.456633839e-09
-1.747070249e-10
6.898752158e-09
-1.932703405e-10
7.323497402e-09
-2.112980293e-10
7.729522829e-09
-2.2853495e-10
8.115488592e-09
-2.447478269e-10
8.48005199e-09
-2.597228388e-10
8.821855334e-09
-2.73244046e-10
9.139507636e-09
-2.850979642e-10
9.431598239e-09
-2.950737714e-10
9.696709451e-09
-3.02963558e-10
9.933414875e-09
-3.085947492e-10
1.014029913e-08
-3.118571274e-10
1.031594951e-08
-3.127071595e-10
1.045895583e-08
-3.111710323e-10
1.056791187e-08
-3.07314664e-10
1.064141622e-08
-3.012191812e-10
1.067807368e-08
-2.929832586e-10
1.06764959e-08
-2.827249599e-10
1.063530214e-08
-2.705842451e-10
1.055311991e-08
-2.56726536e-10
1.042858549e-08
-2.4133804e-10
1.02603444e-08
-2.246300571e-10
1.004705152e-08
-2.068329825e-10
9.787371258e-09
-1.881960553e-10
9.479977295e-09
-1.689868619e-10
9.123552309e-09
-1.494845145e-10
8.71678744e-09
-1.299800657e-10
8.258381581e-09
-1.10773633e-10
7.747040426e-09
-9.216763917e-11
7.181475719e-09
-7.446665591e-11
6.5604034e-09
-5.797080096e-11
5.882542334e-09
-4.29696517e-11
5.146613073e-09
-2.974112352e-11
4.351336157e-09
-1.853965617e-11
3.495429659e-09
-9.587545623e-12
2.577607601e-09
-3.079079798e-12
1.596577164e-09
5.513812304e-10
-8.22370575e-13
2.754347739e-10
-3.304634668e-12
8.257482007e-10
-7.41718862e-12
1.374173788e-09
-1.309750395e-11
1.919420467e-09
-2.026078536e-11
2.460204016e-09
-2.880032586e-11
2.995238001e-09
-3.858934023e-11
3.523232084e-09
-4.948534711e-11
4.042893617e-09
-6.13328816e-11
4.552924036e-09
-7.396582915e-11
5.052019636e-09
-8.721237403e-11
5.53887103e-09
-1.008946338e-10
6.012163091e-09
-1.148357031e-10
6.470574983e-09
-1.288639328e-10
6.912780404e-09
-1.4281133e-10
7.337444935e-09
-1.565218827e-10
7.743233242e-09
-1.698261586e-10
8.128792989e-09
-1.82542508e-10
8.492768409e-09
-1.944631909e-10
8.833776045e-09
-2.053819173e-10
9.150426362e-09
-2.151042887e-10
9.441320653e-09
-2.234490185e-10
9.705053909e-09
-2.302509589e-10
9.940216898e-09
-2.35365187e-10
1.014541355e-08
-2.386883316e-10
1.031927235e-08
-2.401543262e-10
1.046042201e-08
-2.39734977e-10
1.056749237e-08
-2.374339967e-10
1.063911482e-08
-2.332837296e-10
1.067392351e-08
-2.273452406e-10
1.067055696e-08
-2.197021715e-10
1.062765945e-08
-2.104644396e-10
1.054388192e-08
-1.997613715e-10
1.041788266e-08
-1.877445732e-10
1.024832767e-08
-1.745838834e-10
1.003389088e-08
-1.60467307e-10
9.773254208e-09
-1.455970175e-10
9.465107429e-09
-1.30192704e-10
9.1081479e-09
-1.144856453e-10
8.701080247e-09
-9.871991355e-11
8.242615862e-09
-8.315166292e-11
7.731472316e-09
-6.804854761e-11
7.166372715e-09
-5.369047368e-11
6.54604489e-09
-4.036779405e-11
5.869220431e-09
-2.838863636e-11
5.134633834e-09
-1.807348943e-11
4.341021221e-09
-9.762661506e-12
3.48711911e-09
-3.817819261e-12
2.571662314e-09
-6.230306153e-13
1.593382165e-09
5.507583365e-10
-6.910293564e-13
2.761258039e-10
-2.736338824e-12
8.277935201e-10
-6.10214904e-12
1.377539586e-09
-1.074213576e-11
1.924060423e-09
-1.659106135e-11
2.466053e-09
-2.356798041e-11
3.002214951e-09
-3.157885276e-11
3.531242903e-09
-4.051242366e-11
4.051827249e-09
-5.024357686e-11
4.562655092e-09
-6.063407249e-11
5.062410162e-09
-7.153458236e-11
5.549771579e-09
-8.278677297e-11
6.023415212e-09
-9.422688796e-11
6.482015154e-09
-1.056880141e-10
6.924241627e-09
-1.170043426e-10
7.348761212e-09
-1.280012017e-10
7.754230314e-09
-1.384967376e-10
8.139288385e-09
-1.482946888e-10
8.502566241e-09
-1.572217603e-10
8.842703443e-09
-1.651266595e-10
9.158331307e-09
-1.718865974e-10
9.448080429e-09
-1.774129214e-10
9.710580116e-09
-1.816555525e-10
9.944459622e-09
-1.845915953e-10
1.014834969e-08
-1.862029706e-10
1.032088367e-08
-1.864788768e-10
1.046069796e-08
-1.854191366e-10
1.056643271e-08
-1.830367319e-10
1.063673238e-08
-1.793597929e-10
1.067024645e-08
-1.744326297e-10
1.066562993e-08
-1.683173516e-10
1.062154383e-08
-1.610910051e-10
1.053665563e-08
-1.528477643e-10
1.040963949e-08
-1.436968302e-10
1.023917645e-08
-1.337599533e-10
1.002395443e-08
-1.231738961e-10
9.762668128e-09
-1.120854331e-10
9.454018854e-09
-1.006518004e-10
9.096714066e-09
-8.903849593e-11
8.689466964e-09
-7.741831736e-11
8.230995822e-09
-6.596911134e-11
7.720023276e-09
-5.487212669e-11
7.155275446e-09
-4.43072158e-11
6.535480966e-09
-3.445772227e-11
5.859370029e-09
-2.549645936e-11
5.12567297e-09
-1.759426978e-11
4.333119048e-09
-1.091001295e-11
3.480435023e-09
-5.591127968e-12
2.566343831e-09