/*--------------------------------*- C++ -*----------------------------------*\
| =========                 |                                                 |
| \\      /  F ield         | OpenFOAM: The Open Source CFD Toolbox           |
|  \\    /   O peration     | Version:  5.x                                   |
|   \\  /    A nd           | Web:      www.OpenFOAM.org                      |
|    \\/     M anipulation  |                                                 |
\*---------------------------------------------------------------------------*/
FoamFile
{
    version     2.0;
    format      ascii;
    class       volScalarField;
    location    "0.004";
    object      Jk;
}
// * * * * * * * * * * * * * * * * * * * * * * * * * * * * * * * * * * * * * //

dimensions      [0 -3 -1 0 0 0 0];

internalField   nonuniform List<scalar> 
7950
(
1.451250312e+24
1.472311996e+24
1.502883909e+24
1.551220797e+24
1.619141311e+24
1.709628009e+24
1.826470665e+24
1.974636772e+24
2.16071912e+24
2.393457722e+24
2.684460076e+24
3.049211896e+24
3.508500982e+24
4.090440978e+24
4.833378186e+24
5.790105718e+24
7.034029174e+24
8.668281084e+24
1.083933159e+25
1.37575234e+25
1.772838402e+25
2.320087045e+25
3.084248779e+25
4.165746643e+25
5.717458669e+25
7.974865148e+25
1.130489535e+26
1.628578401e+26
2.383870621e+26
3.54463309e+26
5.351772855e+26
8.200096e+26
1.274168013e+27
2.006012307e+27
3.195756398e+27
5.14467051e+27
8.360219206e+27
1.36783261e+28
2.24764884e+28
3.701674441e+28
6.088462649e+28
9.962867313e+28
1.614268079e+29
2.574289059e+29
4.008053087e+29
6.023287508e+29
8.582557233e+29
1.124991144e+30
1.287558632e+30
1.178819634e+30
1.720407194e+29
1.724826488e+29
1.728608803e+29
1.743032568e+29
1.765012949e+29
1.794365311e+29
1.831461845e+29
1.87667544e+29
1.93042543e+29
1.993236247e+29
2.065744505e+29
2.148688553e+29
2.242915292e+29
2.349388566e+29
2.469197088e+29
2.603563186e+29
2.753850061e+29
2.921569741e+29
3.108390333e+29
3.316145777e+29
3.54682353e+29
3.802532479e+29
4.085499599e+29
4.398140807e+29
4.742942233e+29
5.122358993e+29
5.53878226e+29
5.994470574e+29
6.491309844e+29
7.030568383e+29
7.612794396e+29
8.237329408e+29
8.902403102e+29
9.604381629e+29
1.033519899e+30
1.10849197e+30
1.184678493e+30
1.258765207e+30
1.328635122e+30
1.392720578e+30
1.446134914e+30
1.484631244e+30
1.503452903e+30
1.497358585e+30
1.460965072e+30
1.388702971e+30
1.274492458e+30
1.114978821e+30
9.175243756e+29
6.163926937e+29
2.649991662e+30
2.647297179e+30
2.633824313e+30
2.62819331e+30
2.625125795e+30
2.623941651e+30
2.62465164e+30
2.627111952e+30
2.631111034e+30
2.636447951e+30
2.642927104e+30
2.650335239e+30
2.658440898e+30
2.666994726e+30
2.675729824e+30
2.684362596e+30
2.692592359e+30
2.700103107e+30
2.706565488e+30
2.711637985e+30
2.714960537e+30
2.716143968e+30
2.714790969e+30
2.710543023e+30
2.703024585e+30
2.69183226e+30
2.676571854e+30
2.656863588e+30
2.632312859e+30
2.602520995e+30
2.567132782e+30
2.525817271e+30
2.478341134e+30
2.424434779e+30
2.363643953e+30
2.296001529e+30
2.221964317e+30
2.139491576e+30
2.049788452e+30
1.954611797e+30
1.852624641e+30
1.744411572e+30
1.630582972e+30
1.511573431e+30
1.387577286e+30
1.257981751e+30
1.120613116e+30
9.733520595e+29
8.182384887e+29
5.813496903e+29
6.119512903e+30
6.080080636e+30
6.01250288e+30
5.964343697e+30
5.915960933e+30
5.864271915e+30
5.80923736e+30
5.750517837e+30
5.687658622e+30
5.620354513e+30
5.548435591e+30
5.471777233e+30
5.389870782e+30
5.302919957e+30
5.210758864e+30
5.113017464e+30
5.009994679e+30
4.901580124e+30
4.787848152e+30
4.668956978e+30
4.545086599e+30
4.41641141e+30
4.283228751e+30
4.146023764e+30
4.005362996e+30
3.861500694e+30
3.714055028e+30
3.565618005e+30
3.41616704e+30
3.264537325e+30
3.112734456e+30
2.961195085e+30
2.810342296e+30
2.66064215e+30
2.512451129e+30
2.366407689e+30
2.222939952e+30
2.081081592e+30
1.942323573e+30
1.807764945e+30
1.67634283e+30
1.548268955e+30
1.423490546e+30
1.301511414e+30
1.181196966e+30
1.060034922e+30
9.333715239e+29
7.965954189e+29
6.459332169e+29
3.791176934e+29
7.931612782e+30
7.866471669e+30
7.759008469e+30
7.673453842e+30
7.583241254e+30
7.484598328e+30
7.377731214e+30
7.262477779e+30
7.138609456e+30
7.006152334e+30
6.865330034e+30
6.716392605e+30
6.559340398e+30
6.394895697e+30
6.223376894e+30
6.045054164e+30
5.860808705e+30
5.671149978e+30
5.476787229e+30
5.278498844e+30
5.077064114e+30
4.873262297e+30
4.667984401e+30
4.462232092e+30
4.256938103e+30
4.05267308e+30
3.849855768e+30
3.650853581e+30
3.455607881e+30
3.263579421e+30
3.076559842e+30
2.894949958e+30
2.719091726e+30
2.549303673e+30
2.385807328e+30
2.228945598e+30
2.078709378e+30
1.934297913e+30
1.796734637e+30
1.66641103e+30
1.542107312e+30
1.423603144e+30
1.310408976e+30
1.201618235e+30
1.095716003e+30
9.899380371e+29
8.796108976e+29
7.597759796e+29
6.239043806e+29
3.772352689e+29
8.491602259e+30
8.393547635e+30
8.25518633e+30
8.14566449e+30
8.030846445e+30
7.905630006e+30
7.770238858e+30
7.624587111e+30
7.468602353e+30
7.302583694e+30
7.12706297e+30
6.94258505e+30
6.749593396e+30
6.549109681e+30
6.341800839e+30
6.128393161e+30
5.910057008e+30
5.687663765e+30
5.462238236e+30
5.234869584e+30
5.006696362e+30
4.778586333e+30
4.550672317e+30
4.326043045e+30
4.105158439e+30
3.88698877e+30
3.673651467e+30
3.466646369e+30
3.265676221e+30
3.070603335e+30
2.882733803e+30
2.702291038e+30
2.529429724e+30
2.364258618e+30
2.206810146e+30
2.05713143e+30
1.914929585e+30
1.779552856e+30
1.651612089e+30
1.531034692e+30
1.416619138e+30
1.307899738e+30
1.20412818e+30
1.104123433e+30
1.006021749e+30
9.065583878e+29
8.003629092e+29
6.817312183e+29
5.426713392e+29
2.871900774e+29
8.580799755e+30
8.473227981e+30
8.32483912e+30
8.204451338e+30
8.077657434e+30
7.939580356e+30
7.790551994e+30
7.630616146e+30
7.459886614e+30
7.278860845e+30
7.088252599e+30
6.888782654e+30
6.681155457e+30
6.466525393e+30
6.245745984e+30
6.019772497e+30
5.789876861e+30
5.557085872e+30
5.32254334e+30
5.087421323e+30
4.852858955e+30
4.619707488e+30
4.388561027e+30
4.161968941e+30
3.940194453e+30
3.722732579e+30
3.511466614e+30
3.307490725e+30
3.110523857e+30
2.920590958e+30
2.738674992e+30
2.564881463e+30
2.399248948e+30
2.241766419e+30
2.09235666e+30
1.950909226e+30
1.817022604e+30
1.690144996e+30
1.570664203e+30
1.458309072e+30
1.351950884e+30
1.251055863e+30
1.154824145e+30
1.062046933e+30
9.708576508e+29
8.780815538e+29
7.786138651e+29
6.668316275e+29
5.340124527e+29
2.859015902e+29
8.490094387e+30
8.369498449e+30
8.212700168e+30
8.085813728e+30
7.952814626e+30
7.808511758e+30
7.653210436e+30
7.486975611e+30
7.310005026e+30
7.122912116e+30
6.926514735e+30
6.721635724e+30
6.509132585e+30
6.290209214e+30
6.065820432e+30
5.837037732e+30
5.605151258e+30
5.371246348e+30
5.136517082e+30
4.902222202e+30
4.669383624e+30
4.438123777e+30
4.210710275e+30
3.988871917e+30
3.771588981e+30
3.559705589e+30
3.354674745e+30
3.15722219e+30
2.967103247e+30
2.784425109e+30
2.609933881e+30
2.443657402e+30
2.285562036e+30
2.135565179e+30
1.993523e+30
1.859232471e+30
1.732250652e+30
1.612101517e+30
1.499012932e+30
1.392590101e+30
1.291767025e+30
1.19595213e+30
1.104282691e+30
1.015478586e+30
9.275697398e+29
8.372173911e+29
7.390809942e+29
6.273177535e+29
4.928176258e+29
2.440243692e+29
8.352563556e+30
8.229905892e+30
8.072340874e+30
7.943226275e+30
7.80767487e+30
7.6608139e+30
7.50298693e+30
7.334322215e+30
7.155108336e+30
6.966034987e+30
6.767976807e+30
6.561816003e+30
6.34849447e+30
6.129230345e+30
5.905030594e+30
5.677019126e+30
5.446478899e+30
5.214519945e+30
4.982339607e+30
4.751145169e+30
4.521858448e+30
4.294851631e+30
4.072239126e+30
3.855365113e+30
3.64345648e+30
3.437391222e+30
3.238441435e+30
3.0471538e+30
2.863312435e+30
2.687057297e+30
2.51897952e+30
2.359060169e+30
2.20722369e+30
2.063347627e+30
1.927251497e+30
1.798684933e+30
1.677198621e+30
1.562371528e+30
1.454339072e+30
1.352653229e+30
1.25631258e+30
1.164718822e+30
1.077011982e+30
9.919277465e+29
9.075288647e+29
8.205722438e+29
7.259322978e+29
6.178798002e+29
4.872335741e+29
2.425079341e+29
8.189790247e+30
8.062927273e+30
7.904221469e+30
7.774038249e+30
7.637643669e+30
7.49016869e+30
7.331932688e+30
7.163072061e+30
6.98392051e+30
6.795215076e+30
6.597862241e+30
6.392779224e+30
6.180955603e+30
5.963606317e+30
5.741765229e+30
5.516575451e+30
5.289293673e+30
5.061041687e+30
4.833065598e+30
4.606496716e+30
4.381628723e+30
4.159988027e+30
3.943344227e+30
3.731935889e+30
3.525855323e+30
3.325859014e+30
3.133026049e+30
2.947785897e+30
2.769952385e+30
2.59967884e+30
2.437443326e+30
2.283197569e+30
2.136838722e+30
1.998219363e+30
1.86713658e+30
1.743312733e+30
1.626302506e+30
1.515722412e+30
1.411638265e+30
1.313565641e+30
1.220548594e+30
1.131974444e+30
1.04696686e+30
9.642434427e+29
8.818393825e+29
7.964674455e+29
7.029440581e+29
5.955188287e+29
4.649234182e+29
2.220875677e+29
8.025732514e+30
7.899551397e+30
7.742707731e+30
7.613122396e+30
7.477235711e+30
7.330430563e+30
7.173041005e+30
7.005236311e+30
6.827393664e+30
6.640277297e+30
6.444808286e+30
6.241920876e+30
6.032627755e+30
5.818132053e+30
5.5994767e+30
5.377807729e+30
5.154359298e+30
4.930248682e+30
4.706688041e+30
4.484722876e+30
4.264729843e+30
4.048223454e+30
3.836799076e+30
3.630651376e+30
3.429926086e+30
3.235373098e+30
3.04796421e+30
2.868048794e+30
2.695461246e+30
2.530350552e+30
2.373125966e+30
2.22372476e+30
2.082021165e+30
1.94785614e+30
1.821015779e+30
1.701209605e+30
1.588003221e+30
1.481042608e+30
1.380351373e+30
1.28543236e+30
1.195373518e+30
1.109568459e+30
1.027152526e+30
9.468642799e+29
8.667751281e+29
7.836775205e+29
6.925489258e+29
5.87743119e+29
4.599444502e+29
2.208640162e+29
7.858350146e+30
7.73163158e+30
7.576226e+30
7.447618588e+30
7.312874648e+30
7.167460997e+30
7.011695477e+30
6.845751822e+30
6.670030901e+30
6.485311682e+30
6.292520225e+30
6.092598455e+30
5.886567776e+30
5.675614255e+30
5.460779581e+30
5.243198275e+30
5.024083274e+30
4.804584509e+30
4.585880105e+30
4.368546155e+30
4.153680983e+30
3.942666444e+30
3.736389861e+30
3.535477417e+30
3.340024044e+30
3.15073719e+30
2.968508249e+30
2.793649855e+30
2.62600932e+30
2.465552901e+30
2.3129579e+30
2.168095976e+30
2.030547075e+30
1.90036686e+30
1.777307085e+30
1.661048742e+30
1.55116757e+30
1.447331198e+30
1.349530312e+30
1.257257725e+30
1.169634098e+30
1.086072899e+30
1.005682157e+30
9.272057604e+29
8.487539024e+29
7.671026317e+29
6.772502831e+29
5.735980898e+29
4.468595421e+29
2.104876903e+29
7.694786851e+30
7.56985297e+30
7.41717422e+30
7.290290505e+30
7.157284371e+30
7.013811692e+30
6.860194819e+30
6.696624038e+30
6.523518987e+30
6.34166372e+30
6.151981218e+30
5.955411529e+30
5.752974789e+30
5.545837208e+30
5.335032363e+30
5.121681877e+30
4.906974932e+30
4.692041519e+30
4.478005902e+30
4.265445519e+30
4.055456633e+30
3.849368546e+30
3.648013601e+30
3.451972076e+30
3.261367651e+30
3.076885625e+30
2.899357639e+30
2.729058216e+30
2.565832552e+30
2.409678074e+30
2.261204241e+30
2.120264676e+30
1.986466758e+30
1.859843693e+30
1.740144863e+30
1.627050765e+30
1.520148879e+30
1.419123857e+30
1.323946043e+30
1.234109431e+30
1.148766724e+30
1.067339355e+30
9.88952218e+29
9.123726298e+29
8.3574391e+29
7.559113406e+29
6.679979157e+29
5.664972899e+29
4.421205813e+29
2.093369674e+29
7.532471257e+30
7.408663156e+30
7.258427867e+30
7.133399025e+30
7.002384103e+30
6.861142283e+30
6.709985022e+30
6.54910725e+30
6.378934093e+30
6.200251317e+30
6.01397194e+30
5.821031228e+30
5.622441499e+30
5.419344288e+30
5.212763182e+30
5.003834331e+30
4.793728547e+30
4.583263525e+30
4.373986385e+30
4.166414461e+30
3.961199381e+30
3.759970009e+30
3.563466547e+30
3.372204908e+30
3.186336175e+30
3.006373175e+30
2.833370636e+30
2.667528397e+30
2.508450309e+30
2.35634861e+30
2.211748262e+30
2.074479409e+30
1.944170072e+30
1.820837959e+30
1.704233072e+30
1.594038297e+30
1.489852458e+30
1.391374146e+30
1.298558566e+30
1.210902213e+30
1.127583551e+30
1.04802925e+30
9.713732679e+29
8.96397662e+29
8.212659324e+29
7.428545388e+29
6.563380444e+29
5.562809117e+29
4.334702913e+29
2.036616819e+29
7.374159684e+30
7.252597542e+30
7.105382555e+30
6.982560821e+30
6.853819129e+30
6.715063768e+30
6.566605249e+30
6.408645189e+30
6.241614299e+30
6.066292599e+30
5.883582027e+30
5.69440692e+30
5.499767652e+30
5.30078318e+30
5.098462453e+30
4.89392191e+30
4.688299548e+30
4.482408999e+30
4.277733462e+30
4.074790677e+30
3.87424261e+30
3.677645732e+30
3.485716627e+30
3.298946294e+30
3.117487456e+30
2.941857051e+30
2.773050897e+30
2.611239187e+30
2.456051983e+30
2.307701832e+30
2.166673749e+30
2.032792103e+30
1.905702148e+30
1.785410255e+30
1.671668252e+30
1.564162862e+30
1.462504014e+30
1.366402248e+30
1.275803239e+30
1.190209842e+30
1.108825261e+30
1.031085799e+30
9.561421069e+29
8.827990125e+29
8.092524123e+29
7.324402425e+29
6.476403332e+29
5.495016282e+29
4.288427999e+29
2.025082039e+29
7.218251892e+30
7.098576366e+30
6.9542044e+30
6.833631292e+30
6.707264691e+30
6.571112877e+30
6.42547701e+30
6.270558715e+30
6.10678785e+30
5.934937351e+30
5.755896714e+30
5.570592433e+30
5.380024878e+30
5.185088714e+30
4.98706602e+30
4.787058245e+30
4.585899996e+30
4.384562724e+30
4.184446473e+30
3.986101094e+30
3.790185438e+30
3.598053856e+30
3.410619046e+30
3.228318755e+30
3.051114449e+30
2.879676362e+30
2.714925309e+30
2.556995521e+30
2.405540845e+30
2.260772156e+30
2.123142931e+30
1.992475368e+30
1.868430023e+30
1.751005544e+30
1.639957154e+30
1.534976517e+30
1.435684285e+30
1.34180124e+30
1.253265974e+30
1.169588224e+30
1.089992475e+30
1.01392323e+30
9.405447336e+29
8.686796179e+29
7.965484096e+29
7.211309672e+29
6.377701263e+29
5.411946784e+29
4.223189785e+29
1.990585127e+29
7.065922525e+30
6.948676767e+30
6.807400276e+30
6.689235438e+30
6.565369593e+30
6.431931863e+30
6.289219911e+30
6.137436939e+30
5.977011154e+30
5.808703729e+30
5.633388516e+30
5.451976076e+30
5.265446367e+30
5.074677818e+30
4.880924915e+30
4.685264414e+30
4.48850833e+30
4.291618608e+30
4.095950063e+30
3.90204034e+30
3.710548819e+30
3.522789785e+30
3.33964391e+30
3.161526465e+30
2.98841313e+30
2.820961739e+30
2.660051811e+30
2.505801544e+30
2.357881991e+30
2.216501428e+30
2.082087936e+30
1.954463141e+30
1.833300338e+30
1.718592706e+30
1.610099316e+30
1.507517423e+30
1.410477805e+30
1.318710599e+30
1.232150314e+30
1.15031508e+30
1.072449947e+30
9.980097023e+29
9.261748442e+29
8.557900393e+29
7.851073509e+29
7.111630663e+29
6.293905232e+29
5.345978327e+29
4.177552731e+29
1.978733368e+29
6.916267639e+30
6.801241951e+30
6.662939478e+30
6.54719168e+30
6.425880769e+30
6.295149853e+30
6.155389162e+30
6.006820676e+30
5.849752126e+30
5.68500122e+30
5.513424099e+30
5.335905153e+30
5.153409728e+30
4.966811874e+30
4.777303614e+30
4.58596151e+30
4.393533026e+30
4.201061885e+30
4.009844584e+30
3.820298397e+30
3.633166171e+30
3.449711871e+30
3.27077537e+30
3.096751121e+30
2.927628794e+30
2.764051222e+30
2.606862685e+30
2.456170107e+30
2.31165956e+30
2.173536688e+30
2.042209364e+30
1.917500598e+30
1.799095245e+30
1.686983e+30
1.580927505e+30
1.480632048e+30
1.385737179e+30
1.295981297e+30
1.211296211e+30
1.131208629e+30
1.054982002e+30
9.820805867e+29
9.116993702e+29
8.427024584e+29
7.733693505e+29
7.007823255e+29
6.204444446e+29
5.27242169e+29
4.122491636e+29
1.954754278e+29
6.769822163e+30
6.657278216e+30
6.522050002e+30
6.408772356e+30
6.290034304e+30
6.162083131e+30
6.025301878e+30
5.879911093e+30
5.726214899e+30
5.565014777e+30
5.397149773e+30
5.223486852e+30
5.044970494e+30
4.862460487e+30
4.677122801e+30
4.490007485e+30
4.301850771e+30
4.11367702e+30
3.9267416e+30
3.741456561e+30
3.558554315e+30
3.379262961e+30
3.20439528e+30
3.034329268e+30
2.869062134e+30
2.709223005e+30
2.555625104e+30
2.408365863e+30
2.267144136e+30
2.13216231e+30
2.003810824e+30
1.881914553e+30
1.766168653e+30
1.656560386e+30
1.552858146e+30
1.454771521e+30
1.36195037e+30
1.274140997e+30
1.191274064e+30
1.112885556e+30
1.038256974e+30
9.66863087e+29
8.979147657e+29
8.302975613e+29
7.623218754e+29
6.911231913e+29
6.122868118e+29
5.207748971e+29
4.077379111e+29
1.942473782e+29
6.626061049e+30
6.515853249e+30
6.383615992e+30
6.272793468e+30
6.156618066e+30
6.031430427e+30
5.897617255e+30
5.755414489e+30
5.60508937e+30
5.447433997e+30
5.283276897e+30
5.113464344e+30
4.938918929e+30
4.760484178e+30
4.579299087e+30
4.396387032e+30
4.2124699e+30
4.02854625e+30
3.845836755e+30
3.664745098e+30
3.485991984e+30
3.310771684e+30
3.139873317e+30
2.973661514e+30
2.812139041e+30
2.65592225e+30
2.505797896e+30
2.361856467e+30
2.223808405e+30
2.091852929e+30
1.966366257e+30
1.847176199e+30
1.733987348e+30
1.626785586e+30
1.525344419e+30
1.429379915e+30
1.338550799e+30
1.252610547e+30
1.171489288e+30
1.09473225e+30
1.021637587e+30
9.516897945e+29
8.841143278e+29
8.178166865e+29
7.511355353e+29
6.812528856e+29
6.038247453e+29
5.138891987e+29
4.027028071e+29
1.923185766e+29
6.485199522e+30
6.37743539e+30
6.248190049e+30
6.139805919e+30
6.026176481e+30
5.903738911e+30
5.772871794e+30
5.633806813e+30
5.486808842e+30
5.332653325e+30
5.172150951e+30
5.006129899e+30
4.83549165e+30
4.661062823e+30
4.483955562e+30
4.305167204e+30
4.12540472e+30
3.945644908e+30
3.767072849e+30
3.590084548e+30
3.41538725e+30
3.244143599e+30
3.077120195e+30
2.914669456e+30
2.756798463e+30
2.604110344e+30
2.457367866e+30
2.316656128e+30
2.181695729e+30
2.052682652e+30
1.929980747e+30
1.813421089e+30
1.70271714e+30
1.597854191e+30
1.498610978e+30
1.404710129e+30
1.315819034e+30
1.23169813e+30
1.152278025e+30
1.077113466e+30
1.005518869e+30
9.36989145e+29
8.707650987e+29
8.057729968e+29
7.403816173e+29
6.718237114e+29
5.958319674e+29
5.075176188e+29
3.982285343e+29
1.910443535e+29
6.347023344e+30
6.241629456e+30
6.115315121e+30
6.009357331e+30
5.898270713e+30
5.778578584e+30
5.650649348e+30
5.514709447e+30
5.371019486e+30
5.220337626e+30
5.063456e+30
4.901184326e+30
4.734403134e+30
4.563921236e+30
4.390824459e+30
4.216085474e+30
4.040396128e+30
3.864711677e+30
3.690184902e+30
3.517204543e+30
3.346463386e+30
3.179094645e+30
3.015844549e+30
2.857054726e+30
2.70273525e+30
2.553476099e+30
2.410018596e+30
2.272443577e+30
2.140480641e+30
2.014322452e+30
1.894321973e+30
1.780313902e+30
1.672019842e+30
1.569424808e+30
1.472312918e+30
1.380413296e+30
1.293401424e+30
1.211044312e+30
1.133273459e+30
1.05965285e+30
9.895121708e+29
9.223564795e+29
8.574409954e+29
7.937115165e+29
7.295654182e+29
6.622821348e+29
5.87663919e+29
5.008950593e+29
3.934298813e+29
1.893323492e+29
6.211586745e+30
6.108599362e+30
5.985196744e+30
5.881646097e+30
5.773076615e+30
5.656098104e+30
5.531070391e+30
5.398214794e+30
5.257787214e+30
5.110528486e+30
4.957212502e+30
4.798630435e+30
4.635642077e+30
4.469038383e+30
4.299879438e+30
4.129113976e+30
3.95741856e+30
3.785726909e+30
3.615161451e+30
3.446102783e+30
3.279229353e+30
3.115646301e+30
2.956080571e+30
2.800864086e+30
2.650009025e+30
2.504092534e+30
2.363836217e+30
2.229317598e+30
2.100274468e+30
1.97689613e+30
1.859526006e+30
1.748002544e+30
1.642055069e+30
1.541668876e+30
1.446633351e+30
1.356684091e+30
1.271504631e+30
1.190868223e+30
1.114707724e+30
1.04259657e+30
9.738794635e+29
9.080716492e+29
8.44443212e+29
7.819600923e+29
7.190490053e+29
6.530382237e+29
5.798028033e+29
4.945983335e+29
3.889792103e+29
1.88011931e+29
6.078715785e+30
5.978059537e+30
5.857499927e+30
5.756319644e+30
5.650234329e+30
5.535934106e+30
5.413770176e+30
5.283956031e+30
5.146743949e+30
5.002857355e+30
4.853051821e+30
4.698100565e+30
4.53884213e+30
4.376049724e+30
4.210758302e+30
4.043893231e+30
3.876115748e+30
3.70833838e+30
3.541654512e+30
3.376436401e+30
3.213347984e+30
3.053467565e+30
2.897503863e+30
2.745779897e+30
2.598309249e+30
2.455656445e+30
2.318524826e+30
2.186989203e+30
2.060794923e+30
1.940128056e+30
1.825323323e+30
1.716223048e+30
1.612563915e+30
1.514331625e+30
1.421320889e+30
1.333273643e+30
1.249881257e+30
1.170922895e+30
1.096332836e+30
1.025693886e+30
9.583650899e+29
8.938715211e+29
8.314975599e+29
7.702283189e+29
7.085187891e+29
6.437434862e+29
5.718453805e+29
4.881510167e+29
3.843213654e+29
1.864116404e+29
5.948449454e+30
5.85012899e+30
5.732379575e+30
5.633538594e+30
5.529901477e+30
5.418238431e+30
5.298892116e+30
5.172070744e+30
5.038020991e+30
4.897449143e+30
4.751092802e+30
4.599706865e+30
4.444109765e+30
4.285056766e+30
4.12355808e+30
3.960516512e+30
3.796577992e+30
3.632633878e+30
3.469750162e+30
3.308290701e+30
3.148904796e+30
2.99264489e+30
2.840202359e+30
2.691891927e+30
2.547728101e+30
2.408263038e+30
2.274182955e+30
2.145560499e+30
2.022148072e+30
1.904128406e+30
1.791828367e+30
1.685094225e+30
1.583669673e+30
1.487541162e+30
1.396508605e+30
1.310320263e+30
1.228675088e+30
1.151358009e+30
1.078305097e+30
1.009108416e+30
9.431411096e+29
8.79938177e+29
8.18798379e+29
7.587263666e+29
6.982056886e+29
6.346580877e+29
5.640964964e+29
4.819173393e+29
3.798863404e+29
1.850463564e+29
5.820656348e+30
5.724605688e+30
5.609600854e+30
5.513056619e+30
5.411826588e+30
5.302756657e+30
5.186180547e+30
5.062301366e+30
4.931359268e+30
4.794044079e+30
4.651075276e+30
4.503190084e+30
4.351186534e+30
4.195802678e+30
4.038024074e+30
3.878731603e+30
3.718556247e+30
3.558368082e+30
3.399207157e+30
3.241428869e+30
3.085667769e+30
2.932951392e+30
2.783954505e+30
2.638983991e+30
2.498054919e+30
2.361707377e+30
2.230611355e+30
2.104837569e+30
1.98414512e+30
1.868713549e+30
1.758862309e+30
1.654441588e+30
1.5552019e+30
1.461130531e+30
1.372032439e+30
1.287662163e+30
1.207726026e+30
1.132014457e+30
1.060465334e+30
9.926798403e+29
9.280447246e+29
8.661045598e+29
8.061721283e+29
7.472709328e+29
6.879120322e+29
6.255626475e+29
5.563027511e+29
4.755976547e+29
3.753193596e+29
1.835001687e+29
5.695355523e+30
5.601558263e+30
5.489256018e+30
5.394970319e+30
5.296105124e+30
5.189581521e+30
5.075724878e+30
4.954733025e+30
4.826840224e+30
4.692719565e+30
4.55307306e+30
4.408620113e+30
4.260139368e+30
4.108351243e+30
3.95421758e+30
3.798597853e+30
3.642108031e+30
3.485597674e+30
3.330081484e+30
3.175906507e+30
3.023692799e+30
2.874443677e+30
2.728817915e+30
2.587114988e+30
2.449350257e+30
2.316051904e+30
2.18787445e+30
2.064887077e+30
1.946855192e+30
1.833955064e+30
1.726499282e+30
1.624342e+30
1.527240218e+30
1.435182176e+30
1.347977885e+30
1.265387995e+30
1.187126013e+30
1.112987766e+30
1.042913092e+30
9.765121673e+29
9.131851113e+29
8.524861226e+29
7.937418766e+29
7.359948308e+29
6.777838119e+29
6.166218456e+29
5.486566126e+29
4.694221144e+29
3.708973752e+29
1.82092082e+29
5.572442737e+30
5.480840247e+30
5.3711781e+30
5.279105843e+30
5.182560346e+30
5.078534708e+30
4.967345901e+30
4.849186258e+30
4.724284753e+30
4.593297116e+30
4.456908401e+30
4.315820698e+30
4.170793212e+30
4.022529222e+30
3.871967683e+30
3.719946793e+30
3.567067643e+30
3.4141599e+30
3.262213657e+30
3.111567643e+30
2.962827616e+30
2.816973328e+30
2.674648034e+30
2.536144219e+30
2.401477253e+30
2.271163626e+30
2.145843164e+30
2.025583702e+30
1.910156586e+30
1.799734772e+30
1.694624425e+30
1.594683638e+30
1.499675582e+30
1.40958949e+30
1.324240397e+30
1.243394879e+30
1.166773477e+30
1.094177205e+30
1.025547799e+30
9.605042284e+29
8.984597111e+29
8.389777611e+29
7.81398531e+29
7.247829245e+29
6.676969263e+29
6.076978903e+29
5.409991089e+29
4.63202242e+29
3.663924291e+29
1.805650081e+29
5.451921075e+30
5.362484191e+30
5.255415183e+30
5.16551448e+30
5.071243402e+30
4.969666277e+30
4.861092024e+30
4.745707828e+30
4.623736733e+30
4.495818345e+30
4.362620888e+30
4.224829241e+30
4.083184026e+30
3.938371413e+30
3.791307646e+30
3.642810565e+30
3.493466719e+30
3.344086002e+30
3.195634709e+30
3.048443423e+30
2.903103775e+30
2.760572612e+30
2.621478177e+30
2.486106121e+30
2.354471788e+30
2.227080223e+30
2.104556883e+30
1.986968383e+30
1.874091874e+30
1.766097114e+30
1.663283996e+30
1.565514483e+30
1.472557827e+30
1.38440427e+30
1.300873708e+30
1.22173858e+30
1.146726259e+30
1.075642853e+30
1.008432082e+30
9.447215837e+29
8.839373494e+29
8.256521929e+29
7.692196996e+29
7.137191319e+29
6.577434577e+29
5.988945291e+29
5.334514497e+29
4.57083512e+29
3.619835244e+29
1.791166548e+29
5.333710725e+30
5.246385056e+30
5.141849499e+30
5.054074472e+30
4.96203116e+30
4.862852978e+30
4.756840539e+30
4.644175505e+30
4.525074556e+30
4.400162442e+30
4.270090607e+30
4.135527458e+30
3.99719483e+30
3.855762453e+30
3.712124304e+30
3.567078278e+30
3.421196608e+30
3.275269761e+30
3.130241142e+30
2.986433013e+30
2.844423015e+30
2.705146007e+30
2.569215573e+30
2.436910636e+30
2.308246474e+30
2.183716884e+30
2.063933479e+30
1.948961557e+30
1.838583922e+30
1.732967311e+30
1.632405438e+30
1.536764034e+30
1.445818306e+30
1.359559471e+30
1.27781216e+30
1.200354569e+30
1.126920717e+30
1.05732169e+30
9.915030532e+29
9.291009479e+29
8.695539119e+29
8.124437335e+29
7.571371488e+29
7.027314109e+29
6.478458266e+29
5.901257058e+29
5.259142585e+29
4.509474436e+29
3.57524426e+29
1.775881726e+29
5.21779576e+30
5.132546471e+30
5.030495433e+30
4.944803035e+30
4.854941361e+30
4.758111681e+30
4.654606893e+30
4.544603724e+30
4.428313093e+30
4.306344252e+30
4.179332513e+30
4.047929772e+30
3.912840087e+30
3.774716734e+30
3.634431965e+30
3.492764254e+30
3.350271866e+30
3.207726293e+30
3.066048364e+30
2.92555249e+30
2.786802687e+30
2.650711985e+30
2.517879729e+30
2.388578405e+30
2.262823126e+30
2.141096693e+30
2.023997121e+30
1.911588636e+30
1.803659491e+30
1.7003733e+30
1.602017873e+30
1.508462655e+30
1.419488607e+30
1.335087926e+30
1.25508988e+30
1.179278279e+30
1.107393652e+30
1.039251912e+30
9.748005464e+29
9.136840364e+29
8.553531658e+29
7.993986861e+29
7.452003097e+29
6.918730722e+29
6.380624825e+29
5.814571138e+29
5.184643129e+29
4.448866218e+29
3.531305697e+29
1.761023674e+29
5.104112156e+30
5.020889758e+30
4.92126674e+30
4.837612007e+30
4.749885615e+30
4.655355175e+30
4.55430566e+30
4.446908878e+30
4.33336965e+30
4.214281664e+30
4.090265084e+30
3.961956177e+30
3.830041163e+30
3.695157219e+30
3.558155366e+30
3.419795178e+30
3.280621132e+30
3.141386249e+30
3.002989216e+30
2.865736693e+30
2.730179361e+30
2.597209041e+30
2.46741117e+30
2.341051891e+30
2.21814607e+30
2.099165899e+30
1.984696014e+30
1.874799554e+30
1.769270088e+30
1.668268264e+30
1.572076042e+30
1.480566366e+30
1.39352595e+30
1.310947991e+30
1.232666108e+30
1.158469638e+30
1.088105586e+30
1.021394462e+30
9.582855819e+29
8.984316597e+29
8.412953942e+29
7.864762815e+29
7.333668073e+29
6.810993153e+29
6.283450653e+29
5.728351545e+29
5.110395909e+29
4.388266453e+29
3.487089561e+29
1.745609229e+29
4.992642449e+30
4.911408286e+30
4.814163716e+30
4.732503533e+30
4.646866717e+30
4.554585703e+30
4.45593811e+30
4.351091035e+30
4.24024378e+30
4.123975225e+30
4.002890093e+30
3.877608848e+30
3.748800731e+30
3.617087166e+30
3.483298407e+30
3.348175484e+30
3.2122495e+30
3.076255306e+30
2.94107007e+30
2.806992929e+30
2.674561483e+30
2.544646682e+30
2.417820366e+30
2.294342556e+30
2.174227906e+30
2.057938034e+30
1.946044593e+30
1.838609714e+30
1.735432126e+30
1.636669439e+30
1.542597954e+30
1.453094156e+30
1.367950223e+30
1.287160267e+30
1.21056233e+30
1.1379511e+30
1.069079794e+30
1.003773511e+30
9.419833912e+29
8.833701559e+29
8.274082661e+29
7.737058474e+29
7.216679175e+29
6.704440354e+29
6.187308935e+29
5.643016562e+29
5.036888999e+29
4.32826447e+29
3.443334719e+29
1.730406424e+29
4.883331948e+30
4.804039345e+30
4.709119545e+30
4.629410473e+30
4.545818035e+30
4.455737594e+30
4.359440136e+30
4.257087763e+30
4.148874455e+30
4.035364854e+30
3.91714822e+30
3.794830124e+30
3.669062765e+30
3.540452253e+30
3.409808588e+30
3.277854296e+30
3.14510763e+30
3.012285747e+30
2.880244869e+30
2.749276733e+30
2.619906083e+30
2.492983481e+30
2.369067507e+30
2.248412123e+30
2.131031781e+30
2.01737773e+30
1.908008904e+30
1.802986507e+30
1.702114207e+30
1.605546658e+30
1.513554614e+30
1.426017928e+30
1.342734264e+30
1.263698462e+30
1.188752881e+30
1.117697499e+30
1.050291518e+30
9.863646688e+29
9.258697132e+29
8.684752425e+29
8.136672138e+29
7.610621605e+29
7.100774828e+29
6.598794748e+29
6.091899133e+29
5.558233878e+29
4.963737222e+29
4.268396215e+29
3.399456006e+29
1.71480294e+29
4.776148637e+30
4.698762845e+30
4.606119939e+30
4.52831968e+30
4.446727139e+30
4.358799694e+30
4.264801305e+30
4.164889612e+30
4.059253329e+30
3.948442955e+30
3.833033016e+30
3.713613975e+30
3.590821831e+30
3.465247633e+30
3.337681545e+30
3.20882839e+30
3.079193627e+30
2.949477031e+30
2.820514268e+30
2.692589877e+30
2.566216071e+30
2.442223442e+30
2.321157549e+30
2.203266499e+30
2.088564516e+30
1.977492698e+30
1.870597519e+30
1.767939201e+30
1.669326331e+30
1.5749106e+30
1.484957307e+30
1.399349669e+30
1.317890546e+30
1.240575616e+30
1.167251444e+30
1.097723106e+30
1.031755736e+30
9.691834349e+29
9.099606819e+29
8.537637414e+29
8.000898793e+29
7.485639383e+29
6.986154107e+29
6.494272574e+29
5.997459272e+29
5.474269083e+29
4.891250676e+29
4.209035989e+29
3.35592499e+29
1.699286039e+29
4.671053428e+30
4.595527103e+30
4.505108986e+30
4.42917519e+30
4.349538748e+30
4.263718258e+30
4.171968699e+30
4.074444824e+30
3.971330065e+30
3.863160695e+30
3.75049705e+30
3.633914932e+30
3.51403422e+30
3.391431419e+30
3.266877358e+30
3.141059437e+30
3.014470589e+30
2.887793753e+30
2.761844409e+30
2.636900005e+30
2.51346055e+30
2.392337086e+30
2.274062438e+30
2.158878952e+30
2.04680068e+30
1.93825869e+30
1.833787269e+30
1.733445797e+30
1.637047555e+30
1.544741267e+30
1.456786901e+30
1.373071007e+30
1.293401436e+30
1.217774722e+30
1.146041525e+30
1.078011867e+30
1.013456644e+30
9.522142894e+29
8.942409465e+29
8.392203375e+29
7.86660887e+29
7.361954155e+29
6.872653233e+29
6.390700778e+29
5.903803181e+29
5.390916364e+29
4.819189666e+29
4.149894272e+29
3.31237663e+29
1.683470786e+29
4.568019008e+30
4.494313571e+30
4.406072437e+30
4.331964733e+30
4.254241621e+30
4.170481029e+30
4.080931297e+30
3.985742899e+30
3.885094274e+30
3.779508208e+30
3.669530974e+30
3.55572395e+30
3.438691557e+30
3.318995923e+30
3.197388924e+30
3.074541049e+30
2.950933017e+30
2.82723115e+30
2.704231265e+30
2.58220394e+30
2.461637196e+30
2.343322942e+30
2.227781535e+30
2.115249709e+30
2.005741286e+30
1.899677583e+30
1.79758092e+30
1.699509707e+30
1.605281913e+30
1.515043393e+30
1.429048832e+30
1.347187968e+30
1.269273601e+30
1.195303025e+30