/*--------------------------------*- C++ -*----------------------------------*\
| =========                 |                                                 |
| \\      /  F ield         | OpenFOAM: The Open Source CFD Toolbox           |
|  \\    /   O peration     | Version:  5.x                                   |
|   \\  /    A nd           | Web:      www.OpenFOAM.org                      |
|    \\/     M anipulation  |                                                 |
\*---------------------------------------------------------------------------*/
FoamFile
{
    version     2.0;
    format      ascii;
    class       volScalarField;
    location    "0.004";
    object      sigma;
}
// * * * * * * * * * * * * * * * * * * * * * * * * * * * * * * * * * * * * * //

dimensions      [1 0 -2 0 0 0 0];

internalField   nonuniform List<scalar> 
7950
(
0.8302242627
0.8301748904
0.8300660276
0.8298999386
0.8296762476
0.8293939833
0.829051779
0.8286479122
0.8281803067
0.8276465216
0.8270437315
0.8263687028
0.8256177633
0.8247867685
0.8238710617
0.8228654291
0.8217640489
0.8205604337
0.8192473661
0.8178168251
0.8162599054
0.8145667248
0.8127263218
0.8107265406
0.8085539016
0.8061934569
0.8036286286
0.8008410269
0.7978102471
0.7945136416
0.7909260645
0.7870195857
0.7827631697
0.7781223155
0.7730586537
0.7675294926
0.7614873106
0.754879185
0.7476461518
0.7397224852
0.73103489
0.7215015919
0.7110313174
0.699522144
0.6868602101
0.6729182616
0.6575540178
0.6406083315
0.6219031186
0.6012390266
0.7293379565
0.7292627383
0.7290971121
0.7288450429
0.7285067445
0.7280818049
0.7275695073
0.7269689094
0.7262788705
0.7254980645
0.7246249844
0.7236579453
0.722595087
0.7214343744
0.7201735991
0.7188103823
0.7173421764
0.7157662681
0.7140797845
0.7122796972
0.7103628311
0.7083258747
0.7061653913
0.7038778355
0.7014595717
0.6989068973
0.696216071
0.693383347
0.6904050146
0.6872774476
0.6839971615
0.6805608811
0.6769656213
0.6732087813
0.6692882544
0.6652025581
0.6609509856
0.65653378
0.6519523405
0.6472094588
0.6423095951
0.6372591972
0.6320670684
0.6267447938
0.6213072321
0.6157730824
0.6101655365
0.6045130301
0.5988501074
0.5932184138
0.6655838784
0.6655265718
0.6654004812
0.665208845
0.6649521547
0.664630539
0.6642440085
0.6637925191
0.6632759965
0.6626943476
0.6620474692
0.6613352544
0.6605575972
0.6597144005
0.6588055803
0.6578310731
0.6567908436
0.655684891
0.6545132591
0.6532760442
0.6519734056
0.6506055766
0.6491728758
0.6476757197
0.6461146364
0.6444902801
0.6428034459
0.6410550873
0.6392463326
0.637378503
0.6354531332
0.6334719889
0.6314370892
0.6293507265
0.6272154879
0.6250342764
0.6228103307
0.6205472461
0.6182489913
0.6159199259
0.6135648121
0.6111888243
0.6087975525
0.6063969995
0.6039935675
0.6015940378
0.599205533
0.5968354652
0.5944914645
0.592181282
0.6301197946
0.6300852223
0.6300091867
0.6298937164
0.6297392218
0.6295459306
0.6293140382
0.6290437435
0.6287352634
0.6283888403
0.6280047451
0.6275832818
0.6271247877
0.6266296382
0.6260982477
0.6255310723
0.6249286122
0.6242914145
0.6236200752
0.6229152424
0.6221776188
0.6214079643
0.6206070991
0.6197759065
0.6189153348
0.6180264017
0.6171101949
0.6161678768
0.6152006849
0.6142099351
0.6131970224
0.6121634244
0.6111106998
0.6100404913
0.6089545241
0.607854606
0.6067426265
0.6056205537
0.6044904328
0.6033543801
0.6022145808
0.60107328
0.5999327775
0.5987954181
0.5976635824
0.5965396746
0.5954261112
0.5943253066
0.5932396578
0.59217153
0.611722658
0.6117038437
0.6116624747
0.6115996773
0.6115157076
0.6114107336
0.6112849161
0.6111384281
0.6109714624
0.6107842346
0.6105769853
0.6103499805
0.6101035126
0.6098379014
0.6095534937
0.609250664
0.6089298153
0.6085913784
0.6082358136
0.6078636096
0.6074752838
0.6070713833
0.6066524844
0.6062191926
0.6057721424
0.6053119973
0.60483945
0.604355221
0.6038600595
0.6033547411
0.6028400689
0.6023168714
0.6017860012
0.6012483358
0.6007047736
0.6001562339
0.5996036554
0.599047993
0.5984902169
0.5979313096
0.5973722635
0.5968140785
0.5962577586
0.5957043097
0.5951547349
0.5946100334
0.594071195
0.5935391975
0.5930150037
0.5924995564
0.6026133656
0.6026036067
0.6025821513
0.6025495897
0.6025060632
0.6024516704
0.6023865095
0.6023106865
0.6022243212
0.6021275469
0.6020205121
0.6019033802
0.6017763307
0.6016395575
0.6014932703
0.6013376943
0.6011730692
0.6009996504
0.6008177072
0.6006275238
0.6004293987
0.6002236443
0.6000105867
0.5997905646
0.5995639305
0.5993310486
0.5990922951
0.5988480579
0.5985987357
0.5983447371
0.5980864805
0.5978243934
0.597558911
0.5972904761
0.5970195383
0.5967465527
0.5964719789
0.5961962807
0.5959199245
0.5956433788
0.5953671125
0.5950915944
0.5948172917
0.5945446693
0.5942741878
0.5940063037
0.593741467
0.5934801206
0.5932226987
0.5929696268
0.5983216293
0.5983166799
0.598305799
0.5982892873
0.5982672186
0.5982396462
0.598206623
0.5981682071
0.598124464
0.5980754663
0.5980212953
0.5979620402
0.5978977982
0.5978286748
0.5977547832
0.5976762448
0.5975931884
0.5975057509
0.5974140756
0.5973183139
0.5972186237
0.5971151696
0.5970081225
0.59689766
0.5967839649
0.5966672263
0.5965476378
0.5964253988
0.5963007124
0.5961737871
0.596044834
0.5959140687
0.5957817094
0.5956479771
0.595513095
0.5953772884
0.5952407837
0.5951038087
0.5949665909
0.5948293586
0.5946923391
0.5945557593
0.5944198444
0.5942848177
0.5941509002
0.5940183102
0.5938872625
0.5937579686
0.593630635
0.5935054647
0.5964732281
0.5964707439
0.5964652828
0.5964569962
0.5964459213
0.596432086
0.5964155171
0.5963962453
0.5963743041
0.5963497316
0.5963225698
0.5962928647
0.5962606671
0.596226031
0.5961890153
0.5961496823
0.5961080986
0.5960643341
0.5960184625
0.5959705616
0.5959207119
0.5958689972
0.5958155048
0.5957603249
0.5957035503
0.5956452764
0.5955856013
0.5955246256
0.5954624512
0.5953991826
0.595334926
0.5952697889
0.5952038799
0.5951373096
0.5950701884
0.5950026283
0.5949347414
0.5948666397
0.594798436
0.5947302426
0.5946621713
0.5945943332
0.5945268389
0.5944597978
0.5943933181
0.5943275063
0.5942624674
0.5941983047
0.5941351189
0.594073009
0.595851159
0.5958499181
0.5958471903
0.5958430513
0.5958375198
0.5958306098
0.5958223348
0.5958127107
0.5958017543
0.5957894848
0.5957759237
0.5957610941
0.5957450219
0.5957277344
0.5957092613
0.5956896344
0.5956688867
0.5956470542
0.5956241736
0.5956002845
0.595575427
0.5955496435
0.5955229781
0.5954954756
0.5954671829
0.5954381478
0.5954084195
0.5953780479
0.5953470844
0.5953155811
0.5952835907
0.5952511671
0.5952183645
0.5951852375
0.5951518413
0.5951182313
0.5950844634
0.5950505928
0.5950166758
0.5949827677
0.5949489238
0.5949151993
0.5948816487
0.594848326
0.5948152846
0.5947825774
0.5947502558
0.5947183709
0.5946869722
0.5946561088
0.5958416474
0.5958410289
0.5958396695
0.5958376064
0.5958348495
0.5958314058
0.5958272818
0.5958224855
0.5958170255
0.5958109113
0.5958041538
0.5957967647
0.5957887566
0.5957801433
0.59577094
0.5957611622
0.5957508268
0.5957399518
0.5957285553
0.5957166573
0.5957042779
0.5956914382
0.5956781602
0.5956644664
0.5956503803
0.5956359256
0.5956211267
0.5956060088
0.5955905974
0.5955749186
0.5955589983
0.5955428636
0.5955265416
0.595510059
0.5954934437
0.5954767231
0.595459925
0.5954430768
0.5954262064
0.5954093412
0.5953925087
0.5953757365
0.5953590513
0.5953424802
0.5953260493
0.5953097851
0.5952937131
0.5952778584
0.5952622458
0.5952468994
0.5961374391
0.5961371312
0.5961364543
0.5961354271
0.5961340546
0.5961323398
0.5961302864
0.5961278984
0.5961251801
0.596122136
0.5961187716
0.596115093
0.5961111061
0.5961068183
0.5961022367
0.5960973693
0.5960922244
0.596086811
0.5960811384
0.5960752162
0.5960690546
0.5960626641
0.5960560555
0.5960492404
0.5960422302
0.5960350368
0.5960276723
0.5960201494
0.5960124807
0.5960046792
0.5959967578
0.5959887299
0.5959806091
0.5959724087
0.5959641425
0.5959558241
0.5959474674
0.5959390858
0.5959306935
0.595922304
0.5959139311
0.5959055883
0.5958972887
0.5958890461
0.5958808736
0.5958727839
0.5958647898
0.5958569039
0.5958491386
0.5958415056
0.5965852444
0.5965850911
0.5965847541
0.5965842431
0.5965835599
0.5965827065
0.5965816845
0.5965804962
0.5965791434
0.5965776284
0.596575954
0.5965741233
0.5965721392
0.5965700055
0.5965677255
0.5965653033
0.596562743
0.5965600491
0.5965572264
0.5965542794
0.5965512134
0.5965480336
0.5965447452
0.596541354
0.5965378661
0.5965342869
0.5965306226
0.5965268795
0.5965230639
0.5965191825
0.5965152413
0.5965112473
0.5965072069
0.5965031273
0.5964990148
0.5964948765
0.5964907191
0.5964865494
0.5964823745
0.5964782009
0.5964740357
0.5964698854
0.5964657567
0.5964616563
0.5964575909
0.5964535666
0.5964495901
0.5964456672
0.5964418044
0.5964380074
0.5971087042
0.597108628
0.5971084603
0.597108206
0.5971078661
0.5971074415
0.597106933
0.5971063418
0.5971056685
0.5971049146
0.5971040816
0.5971031708
0.5971021836
0.5971011219
0.5970999875
0.5970987821
0.5970975083
0.597096168
0.5970947635
0.5970932972
0.5970917717
0.5970901896
0.5970885536
0.5970868663
0.597085131
0.5970833501
0.5970815271
0.5970796648
0.5970777666
0.5970758355
0.5970738747
0.5970718876
0.5970698775
0.5970678478
0.597065802
0.5970637432
0.5970616749
0.5970596006
0.5970575234
0.5970554473
0.5970533751
0.5970513103
0.5970492564
0.5970472166
0.5970451941
0.5970431921
0.5970412139
0.5970392624
0.5970373408
0.5970354519
0.5976698084
0.5976697707
0.5976696872
0.5976695606
0.5976693915
0.5976691802
0.5976689273
0.597668633
0.5976682981
0.5976679232
0.5976675087
0.5976670554
0.5976665643
0.5976660361
0.5976654715
0.597664872
0.5976642383
0.5976635713
0.5976628726
0.5976621431
0.5976613842
0.597660597
0.597659783
0.5976589437
0.5976580803
0.5976571943
0.5976562874
0.5976553608
0.5976544164
0.5976534557
0.5976524803
0.5976514917
0.5976504916
0.5976494818
0.5976484639
0.5976474398
0.5976464108
0.5976453788
0.5976443455
0.5976433125
0.5976422817
0.5976412545
0.5976402328
0.597639218
0.5976382118
0.5976372157
0.5976362316
0.5976352608
0.5976343047
0.597633365
0.5982496422
0.5982496234
0.5982495818
0.598249519
0.5982494347
0.5982493297
0.5982492038
0.5982490574
0.5982488907
0.5982487041
0.598248498
0.5982482724
0.5982480282
0.5982477654
0.5982474846
0.5982471863
0.5982468709
0.598246539
0.5982461914
0.5982458286
0.5982454511
0.5982450594
0.5982446544
0.5982442369
0.5982438072
0.5982433664
0.5982429154
0.5982424544
0.5982419846
0.5982415066
0.5982410212
0.5982405293
0.5982400318
0.5982395296
0.5982390232
0.5982385136
0.5982380017
0.5982374882
0.5982369741
0.5982364605
0.5982359476
0.5982354365
0.5982349281
0.5982344233
0.5982339227
0.5982334272
0.5982329376
0.5982324546
0.5982319791
0.5982315117
0.598838794
0.5988387847
0.5988387641
0.5988387327
0.5988386907
0.5988386386
0.598838576
0.5988385031
0.5988384203
0.5988383273
0.5988382247
0.5988381126
0.598837991
0.5988378603
0.5988377205
0.5988375723
0.5988374153
0.5988372503
0.5988370774
0.5988368968
0.5988367089
0.598836514
0.5988363126
0.5988361049
0.5988358912
0.5988356718
0.5988354474
0.5988352182
0.5988349842
0.5988347465
0.5988345051
0.5988342605
0.5988340128
0.5988337629
0.598833511
0.5988332575
0.5988330028
0.5988327475
0.5988324918
0.598832236
0.5988319809
0.5988317266
0.5988314739
0.5988312226
0.5988309735
0.5988307271
0.5988304835
0.5988302433
0.5988300066
0.598829774
0.5994325816
0.599432577
0.5994325667
0.5994325511
0.5994325303
0.5994325043
0.5994324732
0.599432437
0.5994323958
0.5994323495
0.5994322984
0.5994322427
0.5994321823
0.5994321172
0.5994320478
0.5994319738
0.5994318959
0.5994318136
0.5994317276
0.5994316379
0.5994315444
0.5994314474
0.5994313472
0.5994312438
0.5994311375
0.5994310285
0.5994309168
0.5994308026
0.5994306863
0.5994305681
0.5994304479
0.5994303263
0.5994302031
0.5994300787
0.5994299534
0.5994298274
0.5994297005
0.5994295735
0.5994294462
0.5994293191
0.5994291921
0.5994290656
0.5994289398
0.5994288149
0.5994286911
0.5994285683
0.5994284471
0.5994283277
0.59942821
0.5994280942
0.6000286758
0.6000286733
0.6000286683
0.6000286606
0.6000286501
0.6000286372
0.6000286218
0.6000286036
0.6000285832
0.6000285602
0.6000285348
0.6000285071
0.600028477
0.6000284447
0.6000284101
0.6000283734
0.6000283344
0.6000282936
0.6000282508
0.6000282061
0.6000281597
0.6000281114
0.6000280615
0.6000280102
0.6000279573
0.6000279029
0.6000278474
0.6000277906
0.6000277328
0.600027674
0.6000276143
0.6000275537
0.6000274924
0.6000274304
0.6000273682
0.6000273054
0.6000272424
0.6000271791
0.6000271159
0.6000270527
0.6000269895
0.6000269266
0.600026864
0.6000268018
0.6000267402
0.6000266792
0.6000266188
0.6000265594
0.6000265008
0.6000264433
0.600625917
0.600625916
0.6006259134
0.6006259096
0.6006259043
0.6006258981
0.6006258902
0.6006258813
0.600625871
0.6006258597
0.6006258469
0.6006258332
0.6006258183
0.6006258021
0.6006257849
0.6006257668
0.6006257474
0.600625727
0.6006257058
0.6006256835
0.6006256603
0.6006256365
0.6006256116
0.600625586
0.6006255597
0.6006255326
0.600625505
0.6006254769
0.600625448
0.6006254187
0.600625389
0.6006253589
0.6006253284
0.6006252977
0.6006252666
0.6006252355
0.600625204
0.6006251727
0.6006251412
0.6006251097
0.6006250781
0.6006250468
0.6006250157
0.6006249848
0.6006249541
0.6006249238
0.6006248939
0.6006248642
0.6006248351
0.6006248064
0.6012237294
0.6012237288
0.6012237276
0.6012237255
0.6012237229
0.6012237199
0.601223716
0.6012237116
0.6012237063
0.6012237007
0.6012236944
0.6012236876
0.6012236801
0.6012236722
0.6012236635
0.6012236544
0.6012236449
0.6012236348
0.6012236241
0.601223613
0.6012236015
0.6012235896
0.6012235773
0.6012235645
0.6012235514
0.6012235381
0.6012235243
0.6012235102
0.6012234959
0.6012234813
0.6012234666
0.6012234516
0.6012234365
0.6012234211
0.6012234058
0.6012233902
0.6012233747
0.6012233589
0.6012233434
0.6012233276
0.601223312
0.6012232965
0.6012232809
0.6012232656
0.6012232502
0.6012232351
0.6012232203
0.6012232056
0.601223191
0.6012231767
0.6018218255
0.6018218253
0.6018218245
0.6018218237
0.6018218223
0.6018218209
0.6018218189
0.6018218166
0.6018218142
0.6018218114
0.6018218081
0.6018218047
0.6018218011
0.601821797
0.6018217928
0.6018217884
0.6018217835
0.6018217785
0.6018217732
0.6018217677
0.6018217619
0.601821756
0.60182175
0.6018217435
0.601821737
0.6018217304
0.6018217235
0.6018217164
0.6018217094
0.6018217021
0.6018216948
0.6018216874
0.6018216799
0.6018216722
0.6018216645
0.6018216569
0.601821649
0.6018216413
0.6018216334
0.6018216257
0.6018216179
0.6018216102
0.6018216025
0.6018215948
0.6018215872
0.6018215797
0.6018215722
0.6018215649
0.6018215577
0.6018215506
0.6024200631
0.6024200629
0.6024200625
0.6024200621
0.6024200615
0.6024200606
0.6024200596
0.6024200586
0.6024200574
0.602420056
0.6024200544
0.6024200526
0.6024200507
0.6024200489
0.6024200467
0.6024200445
0.6024200421
0.6024200396
0.602420037
0.6024200342
0.6024200314
0.6024200283
0.6024200253
0.6024200223
0.602420019
0.6024200156
0.6024200122
0.6024200087
0.6024200053
0.6024200017
0.602419998
0.6024199942
0.6024199905
0.6024199867
0.6024199829
0.602419979
0.6024199752
0.6024199714
0.6024199675
0.6024199635
0.6024199596
0.6024199558
0.602419952
0.6024199481
0.6024199445
0.6024199407
0.602419937
0.6024199334
0.6024199297
0.6024199263
0.6030183707
0.6030183707
0.6030183705
0.6030183703
0.6030183699
0.6030183695
0.6030183691
0.6030183685
0.6030183679
0.6030183673
0.6030183665
0.6030183657
0.6030183646
0.6030183636
0.6030183626
0.6030183616
0.6030183604
0.6030183592
0.6030183578
0.6030183564
0.6030183549
0.6030183535
0.6030183521
0.6030183505
0.6030183489
0.6030183473
0.6030183455
0.6030183438
0.603018342
0.6030183402
0.6030183384
0.6030183366
0.6030183347
0.6030183327
0.6030183309
0.6030183289
0.6030183271
0.6030183251
0.6030183232
0.6030183212
0.6030183194
0.6030183174
0.6030183156
0.6030183135
0.6030183117
0.6030183099
0.6030183081
0.6030183063
0.6030183044
0.6030183026
0.6036167135
0.6036167135
0.6036167135
0.6036167133
0.6036167131
0.6036167129
0.6036167127
0.6036167125
0.6036167121
0.6036167117
0.6036167113
0.6036167109
0.6036167105
0.6036167101
0.6036167094
0.6036167088
0.6036167082
0.6036167076
0.603616707
0.6036167064
0.6036167056
0.603616705
0.6036167042
0.6036167034
0.6036167026
0.6036167018
0.603616701
0.6036167002
0.6036166991
0.6036166983
0.6036166973
0.6036166965
0.6036166955
0.6036166947
0.6036166937
0.6036166927
0.6036166917
0.6036166909
0.6036166899
0.6036166888
0.6036166878
0.603616687
0.603616686
0.603616685
0.6036166842
0.6036166832
0.6036166822
0.6036166814
0.6036166804
0.6036166796
0.6042150736
0.6042150736
0.6042150736
0.6042150734
0.6042150734
0.6042150734
0.6042150732
0.604215073
0.604215073
0.6042150728
0.6042150726
0.6042150724
0.6042150722
0.6042150718
0.6042150716
0.6042150714
0.604215071
0.6042150708
0.6042150704
0.6042150702
0.6042150698
0.6042150694
0.604215069
0.6042150686
0.6042150682
0.6042150678
0.6042150674
0.604215067
0.6042150666
0.6042150662
0.6042150656
0.6042150652
0.6042150648
0.6042150644
0.6042150637
0.6042150633
0.6042150629
0.6042150623
0.6042150619
0.6042150615
0.6042150609
0.6042150605
0.6042150601
0.6042150595
0.6042150591
0.6042150587
0.6042150581
0.6042150577
0.6042150573
0.6042150569
0.6048134425
0.6048134425
0.6048134425
0.6048134425
0.6048134423
0.6048134423
0.6048134423
0.6048134421
0.6048134421
0.6048134421
0.6048134419
0.6048134419
0.6048134417
0.6048134417
0.6048134415
0.6048134413
0.6048134411
0.6048134411
0.6048134409
0.6048134407
0.6048134405
0.6048134403
0.6048134401
0.6048134399
0.6048134397
0.6048134395
0.6048134393
0.6048134391
0.6048134389
0.6048134387
0.6048134385
0.6048134383
0.604813438
0.6048134378
0.6048134376
0.6048134372
0.604813437
0.6048134368
0.6048134366
0.6048134364
0.6048134362
0.6048134358
0.6048134356
0.6048134354
0.6048134352
0.604813435
0.6048134348
0.6048134346
0.6048134344
0.6048134342
0.6054118156
0.6054118156
0.6054118156
0.6054118156
0.6054118156
0.6054118154
0.6054118154
0.6054118154
0.6054118154
0.6054118154
0.6054118154
0.6054118152
0.6054118152
0.6054118152
0.605411815
0.605411815
0.605411815
0.6054118148
0.6054118148
0.6054118148
0.6054118146
0.6054118146
0.6054118144
0.6054118144
0.6054118142
0.6054118142
0.605411814
0.605411814
0.6054118138
0.6054118138
0.6054118136
0.6054118134
0.6054118134
0.6054118132
0.6054118132
0.605411813
0.605411813
0.6054118128
0.6054118125
0.6054118125
0.6054118123
0.6054118123
0.6054118121
0.6054118121
0.6054118119
0.6054118117
0.6054118117
0.6054118115
0.6054118115
0.6054118113
0.6060101907
0.6060101907
0.6060101907
0.6060101907
0.6060101907
0.6060101907
0.6060101907
0.6060101907
0.6060101907
0.6060101907
0.6060101907
0.6060101907
0.6060101907
0.6060101905
0.6060101905
0.6060101905
0.6060101905
0.6060101905
0.6060101903
0.6060101903
0.6060101903
0.6060101903
0.6060101903
0.6060101901
0.6060101901
0.6060101901
0.6060101901
0.6060101899
0.6060101899
0.6060101899
0.6060101899
0.6060101897
0.6060101897
0.6060101897
0.6060101895
0.6060101895
0.6060101895
0.6060101895
0.6060101893
0.6060101893
0.6060101893
0.6060101891
0.6060101891
0.6060101891
0.6060101891
0.6060101889
0.6060101889
0.6060101889
0.6060101887
0.6060101887
0.606608567
0.606608567
0.606608567
0.606608567
0.606608567
0.606608567
0.606608567
0.606608567
0.606608567
0.606608567
0.606608567
0.606608567
0.606608567
0.606608567
0.606608567
0.606608567
0.606608567
0.6066085668
0.6066085668
0.6066085668
0.6066085668
0.6066085668
0.6066085668
0.6066085668
0.6066085668
0.6066085668
0.6066085666
0.6066085666
0.6066085666
0.6066085666
0.6066085666
0.6066085666
0.6066085666
0.6066085664
0.6066085664
0.6066085664
0.6066085664
0.6066085664
0.6066085664
0.6066085664
0.6066085662
0.6066085662
0.6066085662
0.6066085662
0.6066085662
0.6066085662
0.606608566
0.606608566
0.606608566
0.606608566
0.6072069439
0.6072069439
0.6072069439
0.6072069439
0.6072069439
0.6072069439
0.6072069439
0.6072069439
0.6072069439
0.6072069439
0.6072069439
0.6072069439
0.6072069439
0.6072069439
0.6072069439
0.6072069439
0.6072069439
0.6072069439
0.6072069437
0.6072069437
0.6072069437
0.6072069437
0.6072069437
0.6072069437
0.6072069437
0.6072069437
0.6072069437
0.6072069437
0.6072069437
0.6072069437
0.6072069437
0.6072069437
0.6072069437
0.6072069435
0.6072069435
0.6072069435
0.6072069435
0.6072069435
0.6072069435
0.6072069435
0.6072069435
0.6072069435
0.6072069435
0.6072069435
0.6072069435
0.6072069433
0.6072069433
0.6072069433
0.6072069433
0.6072069433
0.6078053211
0.6078053211
0.6078053211
0.6078053211
0.6078053211
0.6078053211
0.6078053211
0.6078053211
0.6078053211
0.6078053211
0.6078053211
0.6078053211
0.6078053211
0.6078053211
0.6078053211
0.6078053211
0.6078053211
0.6078053211
0.6078053211
0.6078053211
0.6078053211
0.6078053211
0.6078053211
0.6078053211
0.6078053211
0.6078053209
0.6078053209
0.6078053209
0.6078053209
0.6078053209
0.6078053209
0.6078053209
0.6078053209
0.6078053209
0.6078053209
0.6078053209
0.6078053209
0.6078053209
0.6078053209
0.6078053209
0.6078053209
0.6078053209
0.6078053209
0.6078053209
0.6078053209
0.6078053209
0.6078053209
0.6078053209
0.6078053209
0.6078053209
0.6084036982
0.6084036982
0.6084036982
0.6084036982
0.6084036982
0.6084036982
0.6084036982
0.6084036982
0.6084036982
0.6084036982
0.6084036982
0.6084036982
0.6084036982
0.6084036982
0.6084036982
0.6084036982
0.6084036982
0.6084036982
0.6084036982
0.6084036982
0.6084036982
0.6084036982
0.6084036982
0.6084036982
0.6084036982
0.6084036982
0.6084036982
0.6084036982
0.6084036982
0.6084036982
0.6084036982
0.6084036982
0.6084036982
0.6084036982
0.6084036982
0.6084036982
0.6084036982
0.6084036982
0.6084036982
0.6084036982
0.6084036982
0.6084036982
0.6084036982
0.6084036982
0.6084036982
0.6084036982
0.6084036982
0.6084036982
0.6084036982
0.6084036982
0.6090020755
0.6090020755
0.6090020755
0.6090020755
0.6090020755
0.6090020755
0.6090020755
0.6090020755
0.6090020755
0.6090020755
0.6090020755
0.6090020755
0.6090020755
0.6090020755
0.6090020755
0.6090020755
0.6090020755
0.6090020755
0.6090020755
0.6090020755
0.6090020755
0.6090020755
0.6090020755
0.6090020755
0.6090020755
0.6090020755
0.6090020755
0.6090020755
0.6090020755
0.6090020755
0.6090020755
0.6090020755
0.6090020755
0.6090020755
0.6090020755
0.6090020755
0.6090020755
0.6090020755
0.6090020755
0.6090020755
0.6090020755
0.6090020755
0.6090020755
0.6090020755
0.6090020755
0.6090020755
0.6090020755
0.6090020755
0.6090020755
0.6090020755
0.6096004528
0.6096004528
0.6096004528
0.6096004528
0.6096004528
0.6096004528
0.6096004528
0.6096004528
0.6096004528
0.6096004528
0.6096004528
0.6096004528
0.6096004528
0.6096004528
0.6096004528
0.6096004528
0.6096004528
0.6096004528
0.6096004528
0.6096004528
0.6096004528
0.6096004528
0.6096004528
0.6096004528
0.6096004528
0.6096004528
0.6096004528
0.6096004528
0.6096004528
0.6096004528
0.6096004528
0.6096004528
0.6096004528
0.6096004528
0.6096004528
0.6096004528
0.6096004528
0.6096004528
0.6096004528
0.6096004528
0.6096004528
0.6096004528
0.6096004528
0.6096004528
0.6096004528
0.6096004528
0.6096004528
0.6096004528
0.6096004528
0.6096004528
0.6101988302
0.6101988302
0.6101988302
0.6101988302
0.6101988302
0.6101988302
0.6101988302
0.6101988302
0.6101988302
0.6101988302
0.6101988302
0.6101988302
0.6101988302
0.6101988302
0.6101988302
0.6101988302
0.6101988302
0.6101988302
0.6101988302
0.6101988302
0.6101988302
0.6101988302
0.6101988302
0.6101988302
0.6101988302
0.6101988302
0.6101988302
0.6101988302
0.6101988302
0.6101988302
0.6101988302
0.6101988302
0.6101988302
0.6101988302
0.6101988302
0.6101988302
0.6101988302
0.6101988302
0.6101988302
0.6101988302
0.6101988302
0.6101988302
0.6101988302
0.6101988302
0.6101988302
0.6101988302
0.6101988302
0.6101988302
0.6101988302
0.6101988302
0.6107972075
0.6107972075
0.6107972075
0.6107972075
0.6107972075
0.6107972075
0.6107972075
0.6107972075
0.6107972075
0.6107972075
0.6107972075
0.6107972075
0.6107972075
0.6107972075
0.6107972075
0.6107972075
0.6107972075
0.6107972075
0.6107972075
0.6107972075
0.6107972075
0.6107972075
0.6107972075
0.6107972075
0.6107972075
0.6107972075
0.6107972075
0.6107972075
0.6107972075
0.6107972075
0.6107972075
0.6107972075
0.6107972075
0.6107972075
0.6107972075
0.6107972075
0.6107972075
0.6107972075
0.6107972075
0.6107972075
0.6107972075
0.6107972075
0.6107972075
0.6107972075
0.6107972075
0.6107972075
0.6107972075
0.6107972075
0.6107972075
0.6107972075
0.6113955848
0.6113955848
0.6113955848
0.6113955848
0.6113955848
0.6113955848
0.6113955848
0.6113955848
0.6113955848
0.6113955848
0.6113955848
0.6113955848
0.6113955848
0.6113955848
0.6113955848
0.6113955848
0.6113955848
0.6113955848
0.6113955848
0.6113955848
0.6113955848
0.6113955848
0.6113955848
0.6113955848
0.6113955848
0.6113955848
0.6113955848
0.6113955848
0.6113955848
0.6113955848
0.6113955848
0.6113955848
0.6113955848
0.6113955848
0.6113955848
0.6113955848
0.6113955848
0.6113955848
0.6113955848
0.6113955848
0.6113955848
0.6113955848
0.6113955848
0.6113955848
0.6113955848
0.6113955848
0.6113955848
0.6113955848
0.6113955848
0.6113955848
0.6119939623
0.6119939623
0.6119939623
0.6119939623
0.6119939623
0.6119939623
0.6119939623
0.6119939623
0.6119939623
0.6119939623
0.6119939623
0.6119939623
0.6119939623
0.6119939623
0.6119939623
0.6119939623
0.6119939623
0.6119939623
0.6119939623
0.6119939623
0.6119939623
0.6119939623
0.6119939623
0.6119939623
0.6119939623
0.6119939623
0.6119939623
0.6119939623
0.6119939623
0.6119939623
0.6119939623
0.6119939623
0.6119939623
0.6119939623
0.6119939623
0.6119939623
0.6119939623
0.6119939623
0.6119939623
0.6119939623
0.6119939623
0.6119939623
0.6119939623
0.6119939623
0.6119939623
0.6119939623
0.6119939623
0.6119939623
0.6119939623
0.6119939623
0.6125923397
0.6125923397
0.6125923397
0.6125923397
0.6125923397
0.6125923397
0.6125923397
0.6125923397
0.6125923397
0.6125923397
0.6125923397
0.6125923397
0.6125923397
0.6125923397
0.6125923397
0.6125923397
0.6125923397
0.6125923397
0.6125923397
0.6125923397
0.6125923397
0.6125923397
0.6125923397
0.6125923397
0.6125923397
0.6125923397
0.6125923397
0.6125923397
0.6125923397
0.6125923397
0.6125923397
0.6125923397
0.6125923397
0.6125923397
0.6125923397
0.6125923397
0.6125923397
0.6125923397
0.6125923397
0.6125923397
0.6125923397
0.6125923397
0.6125923397
0.6125923397
0.6125923397
0.6125923397
0.6125923397
0.6125923397
0.6125923397
0.6125923397
0.613190717
0.613190717
0.613190717
0.613190717
0.613190717
0.613190717
0.613190717
0.613190717
0.613190717
0.613190717
0.613190717
0.613190717
0.613190717
0.613190717
0.613190717
0.613190717
0.613190717
0.613190717
0.613190717
0.613190717
0.613190717
0.613190717
0.613190717
0.613190717
0.613190717
0.613190717
0.613190717
0.613190717
0.613190717
0.613190717
0.613190717
0.613190717
0.613190717
0.613190717
0.613190717
0.613190717
0.613190717
0.613190717
0.613190717
0.613190717
0.613190717
0.613190717
0.613190717
0.613190717
0.613190717
0.613190717
0.613190717
0.613190717
0.613190717
0.613190717
0.6137890943
0.6137890943
0.6137890943
0.6137890943
0.6137890943
0.6137890943
0.6137890943
0.6137890943
0.6137890943
0.6137890943
0.6137890943
0.6137890943
0.6137890943
0.6137890943
0.6137890943
0.6137890943
0.6137890943
0.6137890943
0.6137890943
0.6137890943
0.6137890943
0.6137890943
0.6137890943
0.6137890943
0.6137890943
0.6137890943
0.6137890943
0.6137890943
0.6137890943
0.6137890943
0.6137890943
0.6137890943
0.6137890943
0.6137890943
0.6137890943
0.6137890943
0.6137890943
0.6137890943
0.6137890943
0.6137890943
0.6137890943
0.6137890943
0.6137890943
0.6137890943
0.6137890943
0.6137890943
0.6137890943
0.6137890943
0.6137890943
0.6137890943
0.6143874717
0.6143874717
0.6143874717
0.6143874717
0.6143874717
0.6143874717
0.6143874717
0.6143874717
0.6143874717
0.6143874717
0.6143874717
0.6143874717
0.6143874717
0.6143874717
0.6143874717
0.6143874717
0.6143874717
0.6143874717
0.6143874717
0.6143874717
0.6143874717
0.6143874717
0.6143874717
0.6143874717
0.6143874717
0.6143874717
0.6143874717
0.6143874717
0.6143874717
0.6143874717
0.6143874717
0.6143874717
0.6143874717
0.6143874717
0.6143874717
0.6143874717
0.6143874717
0.6143874717
0.6143874717
0.6143874717
0.6143874717
0.6143874717
0.6143874717
0.6143874717
0.6143874717
0.6143874717
0.6143874717
0.6143874717
0.6143874717
0.6143874717
0.614985849
0.614985849
0.614985849
0.614985849
0.614985849
0.614985849
0.614985849
0.614985849
0.614985849
0.614985849
0.614985849
0.614985849
0.614985849
0.614985849
0.614985849
0.614985849
0.614985849
0.614985849
0.614985849
0.614985849
0.614985849
0.614985849
0.614985849
0.614985849
0.614985849
0.614985849
0.614985849
0.614985849
0.614985849
0.614985849
0.614985849
0.614985849
0.614985849
0.614985849
0.614985849
0.614985849
0.614985849
0.614985849
0.614985849
0.614985849
0.614985849
0.614985849
0.614985849
0.614985849
0.614985849
0.614985849
0.614985849
0.614985849
0.614985849
0.614985849
0.6155842263
0.6155842263
0.6155842263
0.6155842263
0.6155842263
0.6155842263
0.6155842263
0.6155842263
0.6155842263
0.6155842263
0.6155842263
0.6155842263
0.6155842263
0.6155842263
0.6155842263
0.6155842263
0.6155842263
0.6155842263
0.6155842263
0.6155842263
0.6155842263
0.6155842263
0.6155842263
0.6155842263
0.6155842263
0.6155842263
0.6155842263
0.6155842263
0.6155842263
0.6155842263
0.6155842263
0.6155842263
0.6155842263
0.6155842263
0.6155842263
0.6155842263
0.6155842263
0.6155842263
0.6155842263
0.6155842263
0.6155842263
0.6155842263
0.6155842263
0.6155842263
0.6155842263
0.6155842263
0.6155842263
0.6155842263
0.6155842263
0.6155842263
0.6161826038
0.6161826038
0.6161826038
0.6161826038
0.6161826038
0.6161826038
0.6161826038
0.6161826038
0.6161826038
0.6161826038
0.6161826038
0.6161826038
0.6161826038
0.6161826038
0.6161826038
0.6161826038
0.6161826038
0.6161826038
0.6161826038
0.6161826038
0.6161826038
0.6161826038
0.6161826038
0.6161826038
0.6161826038
0.6161826038
0.6161826038
0.6161826038
0.6161826038
0.6161826038
0.6161826038
0.6161826038
0.6161826038
0.6161826038
0.6161826038
0.6161826038
0.6161826038
0.6161826038
0.6161826038
0.6161826038
0.6161826038
0.6161826038
0.6161826038
0.6161826038
0.6161826038
0.6161826038
0.6161826038
0.6161826038
0.6161826038
0.6161826038
0.6167809812
0.6167809812
0.6167809812
0.6167809812
0.6167809812
0.6167809812
0.6167809812
0.6167809812
0.6167809812
0.6167809812
0.6167809812