/*--------------------------------*- C++ -*----------------------------------*\
| =========                 |                                                 |
| \\      /  F ield         | OpenFOAM: The Open Source CFD Toolbox           |
|  \\    /   O peration     | Version:  5.x                                   |
|   \\  /    A nd           | Web:      www.OpenFOAM.org                      |
|    \\/     M anipulation  |                                                 |
\*---------------------------------------------------------------------------*/
FoamFile
{
    version     2.0;
    format      ascii;
    class       volScalarField;
    location    "0.004";
    object      theta;
}
// * * * * * * * * * * * * * * * * * * * * * * * * * * * * * * * * * * * * * //

dimensions      [0 0 0 0 0 0 0];

internalField   nonuniform List<scalar> 
7950
(
32.47134704
32.45581033
32.42159886
32.36952486
32.29962193
32.21179123
32.10586834
31.9816404
31.83885283
31.67721289
31.49639221
31.29602918
31.07573133
30.83507813
30.57362423
30.29090324
29.98643222
29.65971702
29.3102584
28.93755929
28.541133
28.1205127
27.67526209
27.20498734
26.70935038
26.18808337
25.64100442
25.06803434
24.46921422
23.84472356
23.19489861
22.52025042
21.82148206
21.09950436
20.35544951
19.59068172
18.80680415
18.00566147
17.18933714
16.36014501
15.52061478
14.67347091
13.82160545
12.96804449
12.11590959
11.26837444
10.42861845
9.599778361
8.78489965
7.986889307
15.36441854
15.35755109
15.34244597
15.31950109
15.2887899
15.2503472
15.20419859
15.15036817
15.08888133
15.01976649
14.943056
14.85878701
14.76700229
14.66775096
14.56108921
14.4470813
14.32580027
14.19732886
14.06176056
13.91920051
13.76976649
13.61359014
13.45081789
13.28161214
13.10615245
12.92463657
12.73728169
12.5443256
12.34602774
12.14267049
11.93456018
11.72202829
11.50543249
11.28515784
11.06161778
10.83525533
10.6065443
10.37599045
10.14413295
9.911545899
9.678840173
9.44666565
9.215713861
8.986721361
8.760473985
8.537812232
8.319638169
8.106924255
7.900724802
7.702190715
10.85610475
10.85296781
10.84607013
10.83559862
10.8215946
10.8040843
10.78309226
10.75864467
10.7307707
10.69950303
10.66487823
10.62693696
10.58572416
10.54128926
10.49368628
10.44297398
10.38921608
10.33248131
10.27284367
10.21038248
10.14518259
10.07733455
10.0069347
9.934085352
9.858894914
9.781478028
9.701955678
9.620455319
9.537110971
9.452063253
9.36545953
9.277453854
9.188207043
9.097886635
9.006666831
8.914728415
8.822258586
8.729450792
8.636504419
8.543624507
8.451021271
8.35890957
8.267508239
8.177039256
8.087726675
7.999795421
7.913469699
7.828971084
7.746516227
7.66631396
9.131042278
9.129548373
9.126263936
9.121279082
9.114615203
9.106287003
9.096308951
9.0846968
9.071468194
9.056642909
9.040242965
9.022292731
9.002818895
8.981850587
8.959419327
8.935559064
8.910306179
8.883699509
8.85578031
8.826592296
8.796181601
8.764596782
8.731888811
8.698111038
8.663319148
8.627571185
8.590927431
8.553450435
8.515204888
8.4762576
8.436677369
8.396534961
8.355902921
8.314855529
8.273468608
8.231819391
8.189986373
8.148049082
8.106087926
8.064183885
8.022418353
7.98087278
7.939628435
7.89876605
7.858365505
7.818505427
7.779262848
7.740712777
7.702927783
7.66597761
8.379491728
8.378765226
8.377168072
8.374744373
8.371504926
8.367457438
8.362609609
8.356969896
8.350547779
8.343353874
8.335399981
8.326699114
8.317265482
8.307114528
8.296262886
8.284728379
8.272530022
8.259687976
8.246223564
8.232159223
8.217518465
8.202325894
8.186607142
8.170388849
8.153698618
8.13656498
8.119017366
8.101086028
8.08280203
8.064197156
8.045303889
8.026155325
8.006785105
7.987227396
7.967516747
7.947688055
7.927776499
7.907817407
7.887846217
7.867898359
7.848009167
7.828213787
7.808547062
7.789043465
7.769736937
7.750660858
7.731847883
7.713329864
7.695137767
7.677301535
8.036999625
8.036642399
8.035857084
8.034665447
8.033072881
8.031083304
8.028700672
8.025929312
8.022774104
8.019240492
8.015334534
8.011062875
8.0064328
8.001452162
7.996129421
7.990473631
7.984494394
7.978201903
7.971606863
7.964720519
7.957554632
7.950121446
7.942433679
7.934504492
7.926347488
7.917976658
7.909406379
7.900651386
7.891726741
7.882647785
7.873430146
7.864089689
7.854642475
7.845104733
7.835492859
7.82582333
7.816112698
7.806377545
7.796634463
7.786899999
7.777190614
7.767522664
7.757912348
7.74837568
7.738928434
7.729586136
7.720364001
7.711276915
7.702339372
7.693565494
7.881822472
7.881645715
7.881257142
7.880667535
7.879879581
7.878895261
7.877716554
7.876345642
7.874784991
7.873037331
7.87110572
7.868993506
7.866704334
7.86424216
7.861611218
7.858816041
7.855861434
7.852752486
7.849494525
7.846093158
7.842554227
7.838883808
7.835088193
7.831173902
7.827147634
7.823016297
7.818786952
7.814466838
7.810063329
7.805583953
7.801036319
7.79642818
7.791767354
7.787061736
7.782319278
7.777547978
7.772755853
7.767950946
7.76314126
7.758334803
7.753539527
7.748763335
7.74401406
7.739299436
7.734627093
7.730004552
7.72543918
7.720938216
7.716508707
7.712157551
7.816156842
7.816069054
7.815876071
7.815583251
7.815191927
7.814703096
7.814117737
7.813436954
7.812661964
7.81179415
7.810835035
7.809786278
7.808649724
7.807427323
7.806121206
7.804733623
7.803266977
7.80172379
7.800106717
7.798418558
7.796662201
7.794840665
7.792957073
7.791014659
7.789016749
7.786966742
7.78486815
7.782724551
7.780539576
7.778316938
7.776060409
7.773773796
7.771460948
7.76912577
7.76677216
7.764404062
7.762025422
7.759640176
7.757252279
7.754865665
7.75248424
7.750111889
7.747752466
7.745409772
7.74308758
7.740789574
7.738519395
7.73628062
7.734076723
7.731911119
7.794212477
7.79416878
7.794072724
7.793926979
7.793732202
7.793488896
7.793197542
7.792858703
7.792472977
7.792041055
7.7915637
7.791041733
7.790476082
7.789867713
7.789217689
7.78852714
7.787797244
7.787029273
7.786224541
7.785384447
7.78451042
7.783603965
7.782666643
7.781700045
7.780705832
7.779685698
7.778641381
7.777574652
7.776487317
7.775381224
7.774258234
7.773120242
7.771969162
7.770806915
7.769635442
7.768456697
7.767272637
7.766085207
7.764896376
7.763708085
7.762522273
7.76134087
7.760165784
7.758998899
7.757842085
7.756697181
7.755565985
7.754450275
7.753351776
7.752272195
7.793877544
7.793855765
7.793807896
7.793735253
7.79363818
7.793516926
7.79337172
7.793202848
7.793010611
7.792795353
7.792557452
7.792297325
7.792015421
7.791712227
7.791388279
7.791044129
7.790680376
7.79029765
7.789896601
7.78947793
7.789042349
7.788590604
7.78812347
7.787641748
7.787146265
7.786637856
7.786117384
7.785585739
7.785043819
7.784492544
7.783932832
7.783365628
7.782791895
7.782212572
7.781628638
7.781041061
7.780450815
7.779858864
7.77926619
7.778673757
7.77808253
7.777493474
7.77690753
7.77632565
7.775748746
7.775177747
7.77461355
7.774057027
7.773509054
7.772970473
7.804301772
7.804290914
7.804267038
7.804230809
7.804182397
7.804121915
7.804049494
7.803965268
7.803869395
7.803762033
7.80364338
7.803513645
7.803373042
7.803221828
7.80306026
7.802888617
7.802707191
7.802516305
7.802316286
7.802107471
7.801890223
7.801664914
7.801431921
7.80119166
7.800944529
7.800690949
7.800431348
7.800166177
7.799895876
7.79962091
7.799341726
7.799058804
7.798772621
7.798483646
7.798192364
7.797899259
7.797604816
7.797309511
7.797013844
7.79671829
7.796423334
7.796129452
7.795837106
7.795546781
7.795258938
7.794974025
7.79469249
7.794414781
7.794141331
7.793872551
7.820116628
7.820111206
7.820099292
7.82008122
7.820057063
7.820026884
7.819990748
7.819948727
7.819900892
7.819847321
7.819788116
7.819723383
7.819653229
7.819577784
7.819497168
7.819411526
7.819320999
7.819225753
7.819125952
7.81902176
7.818913364
7.818800942
7.818684687
7.818564799
7.818441493
7.818314961
7.818185426
7.818053109
7.817918231
7.817781029
7.817641716
7.817500542
7.81735773
7.817213535
7.817068181
7.816921916
7.816774983
7.816627618
7.816480072
7.816332578
7.816185381
7.816038716
7.815892817
7.815747922
7.815604265
7.815462067
7.815321557
7.815182948
7.815046463
7.814912307
7.838654496
7.838651795
7.838645848
7.838636828
7.838624771
7.838609712
7.838591679
7.838570709
7.838546831
7.838520094
7.838490549
7.838458246
7.838423235
7.838385581
7.838345348
7.838302601
7.838257426
7.838209893
7.838160084
7.838108082
7.838053982
7.837997877
7.837939859
7.837880023
7.837818482
7.83775533
7.837690682
7.837624645
7.837557333
7.837488855
7.837419324
7.837348863
7.837277586
7.837205615
7.837133072
7.837060072
7.836986735
7.836913185
7.836839535
7.836765922
7.836692454
7.836619243
7.836546421
7.8364741
7.836402397
7.836331417
7.836261284
7.836192096
7.836123969
7.836057003
7.858587028
7.858585684
7.858582716
7.858578209
7.858572193
7.858564676
7.858555677
7.858545205
7.858533289
7.858519949
7.858505201
7.858489073
7.858471601
7.858452807
7.858432719
7.858411387
7.858388842
7.85836511
7.85834025
7.858314298
7.858287296
7.858259289
7.858230326
7.858200464
7.858169748
7.858138226
7.858105958
7.858072992
7.858039395
7.858005215
7.857970511
7.85793534
7.85789976
7.857863834
7.857827622
7.857791187
7.85775458
7.857717865
7.857681107
7.857644357
7.857607685
7.857571144
7.857534797
7.857498694
7.8574629
7.857427466
7.857392456
7.857357921
7.85732391
7.857290482
7.879252094
7.879251423
7.879249938
7.879247695
7.879244688
7.879240938
7.879236446
7.879231218
7.879225268
7.879218605
7.87921125
7.879203195
7.879194477
7.879185095
7.879175072
7.879164421
7.879153165
7.879141317
7.879128907
7.879115956
7.879102479
7.879088497
7.879074039
7.879059134
7.879043796
7.879028062
7.87901196
7.878995505
7.878978733
7.878961672
7.878944344
7.878926786
7.878909026
7.8788911
7.878873023
7.87885483
7.878836558
7.878818229
7.878799878
7.878781541
7.878763234
7.878744991
7.878726842
7.878708823
7.878690955
7.878673268
7.87865579
7.878638549
7.878621576
7.878604891
7.90031955
7.900319217
7.900318479
7.900317358
7.900315853
7.900313986
7.900311743
7.900309131
7.900306164
7.900302836
7.90029916
7.900295145
7.900290789
7.900286108
7.900281101
7.90027579
7.900270168
7.900264257
7.900258063
7.900251595
7.900244866
7.900237883
7.90023067
7.900223232
7.900215577
7.900207719
7.900199681
7.900191468
7.90018309
7.900174574
7.900165928
7.900157166
7.900148295
7.900139345
7.900130323
7.900121243
7.900112119
7.900102974
7.900093814
7.900084654
7.900075516
7.900066407
7.900057355
7.900048355
7.900039434
7.900030607
7.900021881
7.900013279
7.900004799
7.899996472
7.921624841
7.921624674
7.921624303
7.921623744
7.921622997
7.92162206
7.921620942
7.921619642
7.921618161
7.921616499
7.921614662
7.921612658
7.921610487
7.92160815
7.921605652
7.921602995
7.921600192
7.921597238
7.921594145
7.921590921
7.92158756
7.921584075
7.921580474
7.921576757
7.921572938
7.921569018
7.921565003
7.921560901
7.921556719
7.921552472
7.921548152
7.921543781
7.921539353
7.921534881
7.921530379
7.921525849
7.92152129
7.921516723
7.921512149
7.921507583
7.921503016
7.921498471
7.921493948
7.921489462
7.921485011
7.921480597
7.921476241
7.921471951
7.921467718
7.921463558
7.943086023
7.943085936
7.943085754
7.943085477
7.943085098
7.943084632
7.943084078
7.943083422
7.943082687
7.943081856
7.943080938
7.94307994
7.943078855
7.943077689
7.943076443
7.943075117
7.943073711
7.94307224
7.943070695
7.943069085
7.94306741
7.943065669
7.943063869
7.943062019
7.94306011
7.943058151
7.943056147
7.9430541
7.943052017
7.943049897
7.94304774
7.943045555
7.943043347
7.943041111
7.943038867
7.943036601
7.943034329
7.943032048
7.943029768
7.943027488
7.943025208
7.943022942
7.943020684
7.94301844
7.943016218
7.943014018
7.94301184
7.943009698
7.943007585
7.943005509
7.964662374
7.964662338
7.964662243
7.964662104
7.964661914
7.964661687
7.964661402
7.96466108
7.964660708
7.964660298
7.964659838
7.964659341
7.9646588
7.964658215
7.964657593
7.964656936
7.964656234
7.964655495
7.964654728
7.964653924
7.964653083
7.964652221
7.964651321
7.964650393
7.964649443
7.964648463
7.964647462
7.964646446
7.9646454
7.96464434
7.964643266
7.964642176
7.964641073
7.964639961
7.964638836
7.96463771
7.96463657
7.964635437
7.964634296
7.964633156
7.964632015
7.964630882
7.964629757
7.964628638
7.964627527
7.96462643
7.964625349
7.964624274
7.964623221
7.964622183
7.986333783
7.986333761
7.986333717
7.986333643
7.986333548
7.986333438
7.986333299
7.986333137
7.986332947
7.986332741
7.986332514
7.986332264
7.986331993
7.986331707
7.986331392
7.986331061
7.986330717
7.98633035
7.986329961
7.986329558
7.98632914
7.986328707
7.986328259
7.986327797
7.98632732
7.986326836
7.986326337
7.986325824
7.986325303
7.986324775
7.98632424
7.986323697
7.986323147
7.986322589
7.986322032
7.986321467
7.986320902
7.98632033
7.986319765
7.986319193
7.986318628
7.986318063
7.986317498
7.986316941
7.986316383
7.986315833
7.986315298
7.986314762
7.986314234
7.986313713
8.008090382
8.008090374
8.008090345
8.008090315
8.008090264
8.008090212
8.008090139
8.008090058
8.008089969
8.008089866
8.008089748
8.008089623
8.008089491
8.008089344
8.008089189
8.008089027
8.00808885
8.008088666
8.008088475
8.008088276
8.008088063
8.008087849
8.008087629
8.008087393
8.008087158
8.008086915
8.008086664
8.008086407
8.008086149
8.008085884
8.008085619
8.008085347
8.008085074
8.008084795
8.008084515
8.008084235
8.008083948
8.008083669
8.008083381
8.008083102
8.008082815
8.008082535
8.008082255
8.008081976
8.008081696
8.008081424
8.008081151
8.008080886
8.008080621
8.008080364
8.029927459
8.029927452
8.029927437
8.029927422
8.0299274
8.02992737
8.029927333
8.029927296
8.029927252
8.0299272
8.029927141
8.029927075
8.029927008
8.029926942
8.029926861
8.029926779
8.029926691
8.029926602
8.029926506
8.029926403
8.029926299
8.029926188
8.029926078
8.029925967
8.029925849
8.029925723
8.029925598
8.029925472
8.029925346
8.029925214
8.029925081
8.02992494
8.029924807
8.029924667
8.029924527
8.029924386
8.029924246
8.029924106
8.029923965
8.029923818
8.029923677
8.029923537
8.029923396
8.029923256
8.029923123
8.029922983
8.02992285
8.029922717
8.029922584
8.029922458
8.051842844
8.051842844
8.051842837
8.051842829
8.051842815
8.0518428
8.051842785
8.051842763
8.05184274
8.051842718
8.051842689
8.051842659
8.051842622
8.051842585
8.051842548
8.051842511
8.051842466
8.051842422
8.05184237
8.051842318
8.051842266
8.051842214
8.051842162
8.051842103
8.051842044
8.051841984
8.051841918
8.051841858
8.051841792
8.051841725
8.051841658
8.051841592
8.051841525
8.051841451
8.051841384
8.05184131
8.051841243
8.051841169
8.051841102
8.051841028
8.051840962
8.051840887
8.051840821
8.051840747
8.05184068
8.051840613
8.051840547
8.05184048
8.051840413
8.051840346
8.073835672
8.073835672
8.073835672
8.073835665
8.073835657
8.07383565
8.073835642
8.073835635
8.07383562
8.073835605
8.07383559
8.073835575
8.073835561
8.073835546
8.073835523
8.073835501
8.073835479
8.073835456
8.073835434
8.073835412
8.073835382
8.07383536
8.07383533
8.0738353
8.073835271
8.073835241
8.073835211
8.073835181
8.073835144
8.073835114
8.073835077
8.073835047
8.07383501
8.07383498
8.073834943
8.073834906
8.073834869
8.073834839
8.073834802
8.073834765
8.073834728
8.073834698
8.073834661
8.073834623
8.073834594
8.073834557
8.073834519
8.07383449
8.073834452
8.073834423
8.095905697
8.095905697
8.095905697
8.09590569
8.09590569
8.09590569
8.095905682
8.095905675
8.095905675
8.095905667
8.09590566
8.095905652
8.095905645
8.09590563
8.095905623
8.095905615
8.0959056
8.095905593
8.095905578
8.09590557
8.095905555
8.09590554
8.095905525
8.095905511
8.095905496
8.095905481
8.095905466
8.095905451
8.095905436
8.095905421
8.095905399
8.095905384
8.095905369
8.095905354
8.095905331
8.095905316
8.095905302
8.095905279
8.095905264
8.095905249
8.095905227
8.095905212
8.095905197
8.095905175
8.09590516
8.095905145
8.095905122
8.095905108
8.095905093
8.095905078
8.118053004
8.118053004
8.118053004
8.118053004
8.118052997
8.118052997
8.118052997
8.118052989
8.118052989
8.118052989
8.118052982
8.118052982
8.118052974
8.118052974
8.118052967
8.118052959
8.118052952
8.118052952
8.118052944
8.118052937
8.118052929
8.118052922
8.118052914
8.118052907
8.118052899
8.118052892
8.118052884
8.118052877
8.118052869
8.118052862
8.118052854
8.118052847
8.118052839
8.118052832
8.118052824
8.118052809
8.118052802
8.118052794
8.118052787
8.118052779
8.118052772
8.118052757
8.11805275
8.118052742
8.118052735
8.118052727
8.11805272
8.118052712
8.118052705
8.118052697
8.140277835
8.140277835
8.140277835
8.140277835
8.140277835
8.140277827
8.140277827
8.140277827
8.140277827
8.140277827
8.140277827
8.14027782
8.14027782
8.14027782
8.140277812
8.140277812
8.140277812
8.140277805
8.140277805
8.140277805
8.140277797
8.140277797
8.140277789
8.140277789
8.140277782
8.140277782
8.140277774
8.140277774
8.140277767
8.140277767
8.140277759
8.140277752
8.140277752
8.140277744
8.140277744
8.140277737
8.140277737
8.140277729
8.140277722
8.140277722
8.140277714
8.140277714
8.140277707
8.140277707
8.140277699
8.140277692
8.140277692
8.140277684
8.140277684
8.140277677
8.162580513
8.162580513
8.162580513
8.162580513
8.162580513
8.162580513
8.162580513
8.162580513
8.162580513
8.162580513
8.162580513
8.162580513
8.162580513
8.162580506
8.162580506
8.162580506
8.162580506
8.162580506
8.162580498
8.162580498
8.162580498
8.162580498
8.162580498
8.162580491
8.162580491
8.162580491
8.162580491
8.162580483
8.162580483
8.162580483
8.162580483
8.162580475
8.162580475
8.162580475
8.162580468
8.162580468
8.162580468
8.162580468
8.16258046
8.16258046
8.16258046
8.162580453
8.162580453
8.162580453
8.162580453
8.162580445
8.162580445
8.162580445
8.162580438
8.162580438
8.184961419
8.184961419
8.184961419
8.184961419
8.184961419
8.184961419
8.184961419
8.184961419
8.184961419
8.184961419
8.184961419
8.184961419
8.184961419
8.184961419
8.184961419
8.184961419
8.184961419
8.184961412
8.184961412
8.184961412
8.184961412
8.184961412
8.184961412
8.184961412
8.184961412
8.184961412
8.184961404
8.184961404
8.184961404
8.184961404
8.184961404
8.184961404
8.184961404
8.184961397
8.184961397
8.184961397
8.184961397
8.184961397
8.184961397
8.184961397
8.184961389
8.184961389
8.184961389
8.184961389
8.184961389
8.184961389
8.184961381
8.184961381
8.184961381
8.184961381
8.207420943
8.207420943
8.207420943
8.207420943
8.207420943
8.207420943
8.207420943
8.207420943
8.207420943
8.207420943
8.207420943
8.207420943
8.207420943
8.207420943
8.207420943
8.207420943
8.207420943
8.207420943
8.207420935
8.207420935
8.207420935
8.207420935
8.207420935
8.207420935
8.207420935
8.207420935
8.207420935
8.207420935
8.207420935
8.207420935
8.207420935
8.207420935
8.207420935
8.207420927
8.207420927
8.207420927
8.207420927
8.207420927
8.207420927
8.207420927
8.207420927
8.207420927
8.207420927
8.207420927
8.207420927
8.20742092
8.20742092
8.20742092
8.20742092
8.20742092
8.229959483
8.229959483
8.229959483
8.229959483
8.229959483
8.229959483
8.229959483
8.229959483
8.229959483
8.229959483
8.229959483
8.229959483
8.229959483
8.229959483
8.229959483
8.229959483
8.229959483
8.229959483
8.229959483
8.229959483
8.229959483
8.229959483
8.229959483
8.229959483
8.229959483
8.229959475
8.229959475
8.229959475
8.229959475
8.229959475
8.229959475
8.229959475
8.229959475
8.229959475
8.229959475
8.229959475
8.229959475
8.229959475
8.229959475
8.229959475
8.229959475
8.229959475
8.229959475
8.229959475
8.229959475
8.229959475
8.229959475
8.229959475
8.229959475
8.229959475
8.25257745
8.25257745
8.25257745
8.25257745
8.25257745
8.25257745
8.25257745
8.25257745
8.25257745
8.25257745
8.25257745
8.25257745
8.25257745
8.25257745
8.25257745
8.25257745
8.25257745
8.25257745
8.25257745
8.25257745
8.25257745
8.25257745
8.25257745
8.25257745
8.25257745
8.25257745
8.25257745
8.25257745
8.25257745
8.25257745
8.25257745
8.25257745
8.25257745
8.25257745
8.25257745
8.25257745
8.25257745
8.25257745
8.25257745
8.25257745
8.25257745
8.25257745
8.25257745
8.25257745
8.25257745
8.25257745
8.25257745
8.25257745
8.25257745
8.25257745
8.275275272
8.275275272
8.275275272
8.275275272
8.275275272
8.275275272
8.275275272
8.275275272
8.275275272
8.275275272
8.275275272
8.275275272
8.275275272
8.275275272
8.275275272
8.275275272
8.275275272
8.275275272
8.275275272
8.275275272
8.275275272
8.275275272
8.275275272
8.275275272
8.275275272
8.275275272
8.275275272
8.275275272
8.275275272
8.275275272
8.275275272
8.275275272
8.275275272
8.275275272
8.275275272
8.275275272
8.275275272
8.275275272
8.275275272
8.275275272
8.275275272
8.275275272
8.275275272
8.275275272
8.275275272
8.275275272
8.275275272
8.275275272
8.275275272
8.275275272
8.298053366
8.298053366
8.298053366
8.298053366
8.298053366
8.298053366
8.298053366
8.298053366
8.298053366
8.298053366
8.298053366
8.298053366
8.298053366
8.298053366
8.298053366
8.298053366
8.298053366
8.298053366
8.298053366
8.298053366
8.298053366
8.298053366
8.298053366
8.298053366
8.298053366
8.298053366
8.298053366
8.298053366
8.298053366
8.298053366
8.298053366
8.298053366
8.298053366
8.298053366
8.298053366
8.298053366
8.298053366
8.298053366
8.298053366
8.298053366
8.298053366
8.298053366
8.298053366
8.298053366
8.298053366
8.298053366
8.298053366
8.298053366
8.298053366
8.298053366
8.320912157
8.320912157
8.320912157
8.320912157
8.320912157
8.320912157
8.320912157
8.320912157
8.320912157
8.320912157
8.320912157
8.320912157
8.320912157
8.320912157
8.320912157
8.320912157
8.320912157
8.320912157
8.320912157
8.320912157
8.320912157
8.320912157
8.320912157
8.320912157
8.320912157
8.320912157
8.320912157
8.320912157
8.320912157
8.320912157
8.320912157
8.320912157
8.320912157
8.320912157
8.320912157
8.320912157
8.320912157
8.320912157
8.320912157
8.320912157
8.320912157
8.320912157
8.320912157
8.320912157
8.320912157
8.320912157
8.320912157
8.320912157
8.320912157
8.320912157
8.343852075
8.343852075
8.343852075
8.343852075
8.343852075
8.343852075
8.343852075
8.343852075
8.343852075
8.343852075
8.343852075
8.343852075
8.343852075
8.343852075
8.343852075
8.343852075
8.343852075
8.343852075
8.343852075
8.343852075
8.343852075
8.343852075
8.343852075
8.343852075
8.343852075
8.343852075
8.343852075
8.343852075
8.343852075
8.343852075
8.343852075
8.343852075
8.343852075
8.343852075
8.343852075
8.343852075
8.343852075
8.343852075
8.343852075
8.343852075
8.343852075
8.343852075
8.343852075
8.343852075
8.343852075
8.343852075
8.343852075
8.343852075
8.343852075
8.343852075
8.366873554
8.366873554
8.366873554
8.366873554
8.366873554
8.366873554
8.366873554
8.366873554
8.366873554
8.366873554
8.366873554
8.366873554
8.366873554
8.366873554
8.366873554
8.366873554
8.366873554
8.366873554
8.366873554
8.366873554
8.366873554
8.366873554
8.366873554
8.366873554
8.366873554
8.366873554
8.366873554
8.366873554
8.366873554
8.366873554
8.366873554
8.366873554
8.366873554
8.366873554
8.366873554
8.366873554
8.366873554
8.366873554
8.366873554
8.366873554
8.366873554
8.366873554
8.366873554
8.366873554
8.366873554
8.366873554
8.366873554
8.366873554
8.366873554
8.366873554
8.389977036
8.389977036
8.389977036
8.389977036
8.389977036
8.389977036
8.389977036
8.389977036
8.389977036
8.389977036
8.389977036
8.389977036
8.389977036
8.389977036
8.389977036
8.389977036
8.389977036
8.389977036
8.389977036
8.389977036
8.389977036
8.389977036
8.389977036
8.389977036
8.389977036
8.389977036
8.389977036
8.389977036
8.389977036
8.389977036
8.389977036
8.389977036
8.389977036
8.389977036
8.389977036
8.389977036
8.389977036
8.389977036
8.389977036
8.389977036
8.389977036
8.389977036
8.389977036
8.389977036
8.389977036
8.389977036
8.389977036
8.389977036
8.389977036
8.389977036
8.413162945
8.413162945
8.413162945
8.413162945
8.413162945
8.413162945
8.413162945
8.413162945
8.413162945
8.413162945
8.413162945
8.413162945
8.413162945
8.413162945
8.413162945
8.413162945
8.413162945
8.413162945
8.413162945
8.413162945
8.413162945
8.413162945
8.413162945
8.413162945
8.413162945
8.413162945
8.413162945
8.413162945
8.413162945
8.413162945
8.413162945
8.413162945
8.413162945
8.413162945
8.413162945
8.413162945
8.413162945
8.413162945
8.413162945
8.413162945
8.413162945
8.413162945
8.413162945
8.413162945
8.413162945
8.413162945
8.413162945
8.413162945
8.413162945
8.413162945
8.43643173
8.43643173
8.43643173
8.43643173
8.43643173
8.43643173
8.43643173
8.43643173
8.43643173
8.43643173
8.43643173
8.43643173
8.43643173
8.43643173
8.43643173
8.43643173
8.43643173
8.43643173
8.43643173
8.43643173
8.43643173
8.43643173
8.43643173
8.43643173
8.43643173
8.43643173
8.43643173
8.43643173
8.43643173
8.43643173
8.43643173
8.43643173
8.43643173
8.43643173
8.43643173
8.43643173
8.43643173
8.43643173
8.43643173
8.43643173
8.43643173
8.43643173
8.43643173
8.43643173
8.43643173
8.43643173
8.43643173
8.43643173
8.43643173
8.43643173
8.459783838
8.459783838
8.459783838
8.459783838
8.459783838
8.459783838
8.459783838
8.459783838
8.459783838
8.459783838
8.459783838
8.459783838
8.459783838
8.459783838
8.459783838
8.459783838
8.459783838
8.459783838
8.459783838
8.459783838
8.459783838
8.459783838
8.459783838
8.459783838
8.459783838
8.459783838
8.459783838
8.459783838
8.459783838
8.459783838
8.459783838
8.459783838
8.459783838
8.459783838
8.459783838
8.459783838
8.459783838
8.459783838
8.459783838
8.459783838
8.459783838
8.459783838
8.459783838
8.459783838
8.459783838
8.459783838
8.459783838
8.459783838
8.459783838
8.459783838
8.483219715
8.483219715
8.483219715
8.483219715
8.483219715
8.483219715
8.483219715
8.483219715
8.483219715
8.483219715
8.483219715
8.483219715
8.483219715
8.483219715
8.483219715
8.483219715
8.483219715
8.483219715
8.483219715
8.483219715
8.483219715
8.483219715
8.483219715
8.483219715
8.483219715
8.483219715
8.483219715
8.483219715
8.483219715
8.483219715
8.483219715
8.483219715
8.483219715
8.483219715
8.483219715
8.483219715
8.483219715
8.483219715
8.483219715
8.483219715
8.483219715
8.483219715
8.483219715
8.483219715
8.483219715
8.483219715
8.483219715
8.483219715
8.483219715
8.483219715
8.506739814
8.506739814
8.506739814
8.506739814
8.506739814
8.506739814
8.506739814
8.506739814
8.506739814
8.506739814
8.506739814
8.506739814
8.506739814
8.506739814
8.506739814
8.506739814
8.506739814
8.506739814
8.506739814
8.506739814
8.506739814
8.506739814
8.506739814
8.506739814
8.506739814
8.506739814
8.506739814
8.506739814
8.506739814
8.506739814
8.506739814
8.506739814
8.506739814
8.506739814
8.506739814
8.506739814
8.506739814
8.506739814
8.506739814
8.506739814
8.506739814
8.506739814
8.506739814
8.506739814
8.506739814
8.506739814
8.506739814
8.506739814
8.506739814
8.506739814
8.530344589
8.530344589
8.530344589
8.530344589
8.530344589
8.530344589
8.530344589
8.530344589
8.530344589
8.530344589
8.530344589
8.530344589
8.530344589
8.530344589
8.530344589
8.530344589
8.530344589
8.530344589
8.530344589
8.530344589
8.530344589
8.530344589
8.530344589
8.530344589
8.530344589
8.530344589
8.530344589
8.530344589
8.530344589
8.530344589
8.530344589
8.530344589
8.530344589
8.530344589
8.530344589
8.530344589
8.530344589
8.530344589
8.530344589
8.530344589
8.530344589
8.530344589
8.530344589
8.530344589
8.530344589
8.530344589
8.530344589
8.530344589
8.530344589
8.530344589
8.554034507
8.554034507
8.554034507
8.554034507
8.554034507
8.554034507
8.554034507
8.554034507
8.554034507
8.554034507
8.554034507
8.554034507
8.554034507
8.554034507
8.554034507
8.554034507
8.554034507
8.554034507
8.554034507
8.554034507
8.554034507
8.554034507
8.554034507
8.554034507
8.554034507
8.554034507
8.554034507
8.554034507
8.554034507
8.554034507
8.554034507
8.554034507
8.554034507
8.554034507
8.554034507
8.554034507
8.554034507
8.554034507
8.554034507
8.554034507
8.554034507
8.554034507
8.554034507
8.554034507
8.554034507
8.554034507
8.554034507
8.554034507
8.554034507
8.554034507
8.577810013
8.577810013
8.577810013
8.577810013
8.577810013
8.577810013
8.577810013
8.577810013
8.577810013
8.577810013
8.577810013
8.577810013
8.577810013
8.577810013
8.577810013
8.577810013
8.577810013
8.577810013
8.577810013
8.577810013
8.577810013
8.577810013
8.577810013
8.577810013
8.577810013
8.577810013
8.577810013
8.577810013
8.577810013
8.577810013
8.577810013
8.577810013
8.577810013
8.577810013
8.577810013
8.577810013
8.577810013
8.577810013
8.577810013
8.577810013
8.577810013
8.577810013
8.577810013
8.577810013
8.577810013
8.577810013
8.577810013
8.577810013
8.577810013
8.577810013
8.601671579
8.601671579
8.601671579
8.601671579
8.601671579
8.601671579
8.601671579
8.601671579
8.601671579
8.601671579
8.601671579
8.601671579
8.601671579
8.601671579
8.601671579
8.601671579
8.601671579
8.601671579
8.601671579
8.601671579
8.601671579
8.601671579
8.601671579
8.601671579
8.601671579
8.601671579
8.601671579
8.601671579
8.601671579
8.601671579
8.601671579
8.601671579
8.601671579
8.601671579
8.601671579
8.601671579
8.601671579
8.601671579
8.601671579
8.601671579
8.601671579
8.601671579
8.601671579
8.601671579
8.601671579
8.601671579
8.601671579
8.601671579
8.601671579
8.601671579
8.625619675
8.625619675
8.625619675
8.625619675
8.625619675
8.625619675
8.625619675
8.625619675
8.625619675
8.625619675
8.625619675
8.625619675
8.625619675
8.625619675
8.625619675
8.625619675
8.625619675
8.625619675
8.625619675
8.625619675
8.625619675
8.625619675
8.625619675
8.625619675
8.625619675
8.625619675
8.625619675
8.625619675
8.625619675
8.625619675
8.625619675
8.625619675
8.625619675
8.625619675
8.625619675
8.625619675
8.625619675
8.625619675
8.625619675
8.625619675
8.625619675
8.625619675
8.625619675
8.625619675
8.625619675
8.625619675
8.625619675
8.625619675
8.625619675
8.625619675
8.64965477
8.64965477
8.64965477
8.64965477
8.64965477
8.64965477
8.64965477
8.64965477
8.64965477
8.64965477
8.64965477
8.64965477
8.64965477
8.64965477
8.64965477
8.64965477
8.64965477
8.64965477
8.64965477
8.64965477
8.64965477
8.64965477
8.64965477
8.64965477
8.64965477
8.64965477
8.64965477
8.64965477
8.64965477
8.64965477
8.64965477
8.64965477
8.64965477
8.64965477
8.64965477
8.64965477
8.64965477
8.64965477
8.64965477
8.64965477
8.64965477
8.64965477
8.64965477
8.64965477
8.64965477
8.64965477
8.64965477
8.64965477
8.64965477
8.64965477
8.673777341
8.673777341
8.673777341
8.673777341
8.673777341