/*--------------------------------*- C++ -*----------------------------------*\
| =========                 |                                                 |
| \\      /  F ield         | OpenFOAM: The Open Source CFD Toolbox           |
|  \\    /   O peration     | Version:  5.x                                   |
|   \\  /    A nd           | Web:      www.OpenFOAM.org                      |
|    \\/     M anipulation  |                                                 |
\*---------------------------------------------------------------------------*/
FoamFile
{
    version     2.0;
    format      ascii;
    class       volVectorField;
    location    "0";
    object      cellCenters;
}
// * * * * * * * * * * * * * * * * * * * * * * * * * * * * * * * * * * * * * //

dimensions      [0 1 0 0 0 0 0];

internalField   nonuniform List<vector> 
5000
(
(0.00254794 0.00143233 8.17727e-21)
(0.00254794 0.00328377 5.80259e-21)
(0.00254794 0.00523782 0)
(0.00254794 0.00712806 0)
(0.00254794 0.00893993 6.85222e-22)
(0.00254794 0.0106723 0)
(0.00254794 0.0123272 0)
(0.00254794 0.0139072 0)
(0.00254794 0.0154153 0)
(0.00254794 0.0168548 -2.54721e-20)
(0.00254794 0.0182284 -1.51008e-19)
(0.00254794 0.0195393 0)
(0.00254794 0.0207902 0)
(0.00254794 0.0219837 -1.44298e-19)
(0.00254794 0.0231226 0)
(0.00254794 0.0242093 1.43954e-19)
(0.00254794 0.0252462 0)
(0.00254794 0.0262355 -2.96224e-21)
(0.00254794 0.0271794 0)
(0.00254794 0.0280801 1.52631e-19)
(0.00254794 0.0289394 0)
(0.00254794 0.0297593 5.36591e-20)
(0.00254794 0.0305416 0)
(0.00254794 0.031288 0)
(0.00254794 0.0320001 0)
(0.00254794 0.0326796 2.25774e-19)
(0.00254794 0.0333279 0)
(0.00254794 0.0339464 0)
(0.00254794 0.0345365 -2.98931e-21)
(0.00254794 0.0350996 1.28151e-19)
(0.00254794 0.0356368 0)
(0.00254794 0.0361494 0)
(0.00254794 0.0366384 0)
(0.00254794 0.037105 2.20307e-19)
(0.00254794 0.0375502 7.39881e-20)
(0.00254794 0.0379749 0)
(0.00254794 0.0383802 0)
(0.00254794 0.0387668 0)
(0.00254794 0.0391357 -8.56706e-20)
(0.00254794 0.0394877 8.8992e-20)
(0.00254794 0.0398235 0)
(0.00254794 0.0401439 0)
(0.00254794 0.0404496 0)
(0.00254794 0.0407413 2.17187e-19)
(0.00254794 0.0410196 1.71546e-19)
(0.00254794 0.0412851 0)
(0.00254794 0.0415384 1.17549e-19)
(0.00254794 0.0417801 1.86742e-19)
(0.00254794 0.0420107 0)
(0.00254794 0.0422307 0)
(0.00770378 0.00143233 3.99464e-21)
(0.00770378 0.00328377 1.14026e-21)
(0.00770378 0.00523782 -4.63041e-20)
(0.00770378 0.00712806 -1.00092e-20)
(0.00770378 0.00893993 -3.69203e-20)
(0.00770378 0.0106723 0)
(0.00770378 0.0123272 3.50723e-21)
(0.00770378 0.0139072 -5.08128e-21)
(0.00770378 0.0154153 -5.25281e-20)
(0.00770378 0.0168548 -7.7015e-20)
(0.00770378 0.0182284 -5.11924e-20)
(0.00770378 0.0195393 4.7155e-20)
(0.00770378 0.0207902 7.99411e-21)
(0.00770378 0.0219837 5.45633e-20)
(0.00770378 0.0231226 8.49794e-21)
(0.00770378 0.0242093 6.03919e-20)
(0.00770378 0.0252462 7.32255e-21)
(0.00770378 0.0262355 0)
(0.00770378 0.0271794 -9.41823e-20)
(0.00770378 0.0280801 9.39085e-20)
(0.00770378 0.0289394 1.23586e-21)
(0.00770378 0.0297593 9.17769e-21)
(0.00770378 0.0305416 0)
(0.00770378 0.031288 0)
(0.00770378 0.0320001 5.30216e-20)
(0.00770378 0.0326796 0)
(0.00770378 0.0333279 0)
(0.00770378 0.0339464 -1.69218e-19)
(0.00770378 0.0345365 -6.05297e-20)
(0.00770378 0.0350996 1.2446e-21)
(0.00770378 0.0356368 5.01704e-20)
(0.00770378 0.0361494 2.00405e-19)
(0.00770378 0.0366384 2.08328e-19)
(0.00770378 0.037105 4.16605e-19)
(0.00770378 0.0375502 0)
(0.00770378 0.0379749 1.86511e-20)
(0.00770378 0.0383802 -1.51752e-19)
(0.00770378 0.0387668 -1.36991e-20)
(0.00770378 0.0391357 0)
(0.00770378 0.0394877 -1.61211e-20)
(0.00770378 0.0398235 1.67544e-20)
(0.00770378 0.0401439 -2.0118e-19)
(0.00770378 0.0404496 1.21074e-20)
(0.00770378 0.0407413 1.25028e-21)
(0.00770378 0.0410196 -1.25052e-21)
(0.00770378 0.0412851 6.01494e-21)
(0.00770378 0.0415384 1.04199e-19)
(0.00770378 0.0417801 3.22317e-19)
(0.00770378 0.0420107 -1.15657e-20)
(0.00770378 0.0422307 6.9798e-20)
(0.0129809 0.00143233 -2.06434e-21)
(0.0129809 0.00328377 4.99785e-22)
(0.0129809 0.00523782 -1.2134e-21)
(0.0129809 0.00712806 -2.70796e-22)
(0.0129809 0.00893993 3.94938e-20)
(0.0129809 0.0106723 6.66408e-20)
(0.0129809 0.0123272 6.13039e-20)
(0.0129809 0.0139072 -3.19178e-20)
(0.0129809 0.0154153 1.35091e-19)
(0.0129809 0.0168548 2.78699e-20)
(0.0129809 0.0182284 -9.7205e-20)
(0.0129809 0.0195393 -4.60709e-20)
(0.0129809 0.0207902 5.02194e-21)
(0.0129809 0.0219837 5.35049e-20)
(0.0129809 0.0231226 5.33158e-20)
(0.0129809 0.0242093 -8.71853e-20)
(0.0129809 0.0252462 7.32255e-21)
(0.0129809 0.0262355 -1.3643e-19)
(0.0129809 0.0271794 9.20171e-20)
(0.0129809 0.0280801 -7.61902e-21)
(0.0129809 0.0289394 9.61704e-20)
(0.0129809 0.0297593 2.14672e-19)
(0.0129809 0.0305416 9.88168e-20)
(0.0129809 0.031288 0)
(0.0129809 0.0320001 -1.03605e-19)
(0.0129809 0.0326796 -2.18659e-19)
(0.0129809 0.0333279 -5.99788e-21)
(0.0129809 0.0339464 -1.03025e-19)
(0.0129809 0.0345365 1.20603e-19)
(0.0129809 0.0350996 -4.75775e-21)
(0.0129809 0.0356368 -8.06157e-20)
(0.0129809 0.0361494 -6.49619e-20)
(0.0129809 0.0366384 -1.37786e-19)
(0.0129809 0.037105 2.70594e-19)
(0.0129809 0.0375502 1.35243e-19)
(0.0129809 0.0379749 8.58377e-20)
(0.0129809 0.0383802 -2.24086e-19)
(0.0129809 0.0387668 1.43832e-19)
(0.0129809 0.0391357 0)
(0.0129809 0.0394877 -1.61211e-20)
(0.0129809 0.0398235 1.07421e-20)
(0.0129809 0.0401439 -7.26266e-21)
(0.0129809 0.0404496 -7.73609e-20)
(0.0129809 0.0407413 -4.84293e-20)
(0.0129809 0.0410196 -5.89816e-20)
(0.0129809 0.0412851 -2.3347e-19)
(0.0129809 0.0415384 1.57662e-19)
(0.0129809 0.0417801 -4.73667e-20)
(0.0129809 0.0420107 -7.25044e-20)
(0.0129809 0.0422307 -2.03898e-19)
(0.0183823 0.00143233 -1.16651e-20)
(0.0183823 0.00328377 -9.68276e-21)
(0.0183823 0.00523782 6.42939e-21)
(0.0183823 0.00712806 -2.70796e-22)
(0.0183823 0.00893993 2.09054e-20)
(0.0183823 0.0106723 0)
(0.0183823 0.0123272 2.88184e-20)
(0.0183823 0.0139072 -5.08128e-21)
(0.0183823 0.0154153 -5.96107e-22)
(0.0183823 0.0168548 -4.69107e-20)
(0.0183823 0.0182284 -1.93039e-19)
(0.0183823 0.0195393 0)
(0.0183823 0.0207902 7.99411e-21)
(0.0183823 0.0219837 5.55125e-21)
(0.0183823 0.0231226 5.22854e-20)
(0.0183823 0.0242093 8.50754e-21)
(0.0183823 0.0252462 7.32255e-21)
(0.0183823 0.0262355 -3.84573e-20)
(0.0183823 0.0271794 -5.09286e-20)
(0.0183823 0.0280801 -7.61902e-21)
(0.0183823 0.0289394 1.23586e-21)
(0.0183823 0.0297593 5.64453e-20)
(0.0183823 0.0305416 2.0507e-19)
(0.0183823 0.031288 -6.13719e-20)
(0.0183823 0.0320001 1.01223e-19)
(0.0183823 0.0326796 0)
(0.0183823 0.0333279 0)
(0.0183823 0.0339464 -1.06439e-19)
(0.0183823 0.0345365 6.13482e-20)
(0.0183823 0.0350996 1.2446e-21)
(0.0183823 0.0356368 -2.59942e-19)
(0.0183823 0.0361494 2.65774e-19)
(0.0183823 0.0366384 -7.03812e-20)
(0.0183823 0.037105 -1.41871e-20)
(0.0183823 0.0375502 -1.38003e-19)
(0.0183823 0.0379749 1.26424e-20)
(0.0183823 0.0383802 2.56167e-19)
(0.0183823 0.0387668 -1.36991e-20)
(0.0183823 0.0391357 0)
(0.0183823 0.0394877 -1.1715e-19)
(0.0183823 0.0398235 1.03008e-19)
(0.0183823 0.0401439 -1.24976e-21)
(0.0183823 0.0404496 1.81208e-20)
(0.0183823 0.0407413 2.07428e-19)
(0.0183823 0.0410196 -1.25052e-21)
(0.0183823 0.0412851 3.27738e-19)
(0.0183823 0.0415384 -1.20274e-19)
(0.0183823 0.0417801 -1.60259e-19)
(0.0183823 0.0420107 4.79721e-20)
(0.0183823 0.0422307 -6.33287e-20)
(0.0239107 0.00143233 0)
(0.0239107 0.00328377 1.78074e-21)
(0.0239107 0.00523782 -1.2134e-21)
(0.0239107 0.00712806 -1.06736e-20)
(0.0239107 0.00893993 -1.56305e-20)
(0.0239107 0.0106723 0)
(0.0239107 0.0123272 5.84399e-22)
(0.0239107 0.0139072 -5.08128e-21)
(0.0239107 0.0154153 -5.96107e-22)
(0.0239107 0.0168548 6.00096e-22)
(0.0239107 0.0182284 -9.58836e-20)
(0.0239107 0.0195393 9.38889e-20)
(0.0239107 0.0207902 7.99411e-21)
(0.0239107 0.0219837 9.737e-20)
(0.0239107 0.0231226 -4.02416e-20)
(0.0239107 0.0242093 -4.0282e-20)
(0.0239107 0.0252462 -3.57184e-20)
(0.0239107 0.0262355 -4.93836e-20)
(0.0239107 0.0271794 0)
(0.0239107 0.0280801 -7.61902e-21)
(0.0239107 0.0289394 -5.00584e-20)
(0.0239107 0.0297593 -3.26064e-19)
(0.0239107 0.0305416 -2.41803e-19)
(0.0239107 0.031288 0)
(0.0239107 0.0320001 -1.0489e-19)
(0.0239107 0.0326796 1.07495e-19)
(0.0239107 0.0333279 5.81541e-20)
(0.0239107 0.0339464 9.42484e-21)
(0.0239107 0.0345365 2.31919e-19)
(0.0239107 0.0350996 2.98352e-19)
(0.0239107 0.0356368 -8.38166e-20)
(0.0239107 0.0361494 1.32404e-19)
(0.0239107 0.0366384 -6.89012e-20)
(0.0239107 0.037105 -1.41871e-20)
(0.0239107 0.0375502 -2.81677e-19)
(0.0239107 0.0379749 -1.27094e-19)
(0.0239107 0.0383802 8.81097e-20)
(0.0239107 0.0387668 -3.26461e-19)
(0.0239107 0.0391357 -7.80598e-20)
(0.0239107 0.0394877 6.49651e-20)
(0.0239107 0.0398235 1.91308e-19)
(0.0239107 0.0401439 -1.24976e-21)
(0.0239107 0.0404496 1.81208e-20)
(0.0239107 0.0407413 2.02965e-19)
(0.0239107 0.0410196 1.03496e-19)
(0.0239107 0.0412851 0)
(0.0239107 0.0415384 3.34733e-19)
(0.0239107 0.0417801 1.10956e-20)
(0.0239107 0.0420107 -1.15657e-20)
(0.0239107 0.0422307 6.5415e-20)
(0.0295692 0.00143233 0)
(0.0295692 0.00328377 1.21118e-20)
(0.0295692 0.00523782 -1.2134e-21)
(0.0295692 0.00712806 1.13092e-20)
(0.0295692 0.00893993 3.15244e-21)
(0.0295692 0.0106723 -1.34084e-20)
(0.0295692 0.0123272 -2.92891e-20)
(0.0295692 0.0139072 -5.08128e-21)
(0.0295692 0.0154153 9.69881e-20)
(0.0295692 0.0168548 -1.91201e-20)
(0.0295692 0.0182284 -9.38155e-20)
(0.0295692 0.0195393 4.29658e-20)
(0.0295692 0.0207902 7.99411e-21)
(0.0295692 0.0219837 1.82265e-19)
(0.0295692 0.0231226 -3.32993e-20)
(0.0295692 0.0242093 8.50754e-21)
(0.0295692 0.0252462 7.32255e-21)
(0.0295692 0.0262355 -4.24117e-20)
(0.0295692 0.0271794 0)
(0.0295692 0.0280801 8.54205e-20)
(0.0295692 0.0289394 1.23586e-21)
(0.0295692 0.0297593 -3.18632e-19)
(0.0295692 0.0305416 0)
(0.0295692 0.031288 1.00278e-19)
(0.0295692 0.0320001 -1.50928e-19)
(0.0295692 0.0326796 -2.04327e-19)
(0.0295692 0.0333279 1.07912e-19)
(0.0295692 0.0339464 -4.30106e-20)
(0.0295692 0.0345365 5.27751e-20)
(0.0295692 0.0350996 1.24669e-19)
(0.0295692 0.0356368 -7.04561e-20)
(0.0295692 0.0361494 4.759e-21)
(0.0295692 0.0366384 0)
(0.0295692 0.037105 4.94088e-20)
(0.0295692 0.0375502 0)
(0.0295692 0.0379749 1.86511e-20)
(0.0295692 0.0383802 2.34035e-19)
(0.0295692 0.0387668 -1.36991e-20)
(0.0295692 0.0391357 -6.01102e-21)
(0.0295692 0.0394877 -1.61211e-20)
(0.0295692 0.0398235 1.67544e-20)
(0.0295692 0.0401439 -2.70093e-19)
(0.0295692 0.0404496 -8.29527e-20)
(0.0295692 0.0407413 2.91266e-19)
(0.0295692 0.0410196 -1.03727e-19)
(0.0295692 0.0412851 1.20299e-20)
(0.0295692 0.0415384 9.39962e-20)
(0.0295692 0.0417801 -5.54581e-20)
(0.0295692 0.0420107 -1.15657e-20)
(0.0295692 0.0422307 1.88549e-19)
(0.0353609 0.00143233 1.77804e-21)
(0.0353609 0.00328377 -8.95333e-21)
(0.0353609 0.00523782 -1.2134e-21)
(0.0353609 0.00712806 1.14548e-21)
(0.0353609 0.00893993 -4.93932e-20)
(0.0353609 0.0106723 0)
(0.0353609 0.0123272 -2.57467e-20)
(0.0353609 0.0139072 -5.08128e-21)
(0.0353609 0.0154153 4.56345e-20)
(0.0353609 0.0168548 6.00096e-22)
(0.0353609 0.0182284 5.92423e-21)
(0.0353609 0.0195393 -2.96759e-21)
(0.0353609 0.0207902 7.99411e-21)
(0.0353609 0.0219837 4.95092e-20)
(0.0353609 0.0231226 9.61294e-20)
(0.0353609 0.0242093 -2.42728e-19)
(0.0353609 0.0252462 7.32255e-21)
(0.0353609 0.0262355 0)
(0.0353609 0.0271794 -1.31742e-19)
(0.0353609 0.0280801 7.74377e-20)
(0.0353609 0.0289394 1.36972e-19)
(0.0353609 0.0297593 2.35575e-19)
(0.0353609 0.0305416 -9.00382e-20)
(0.0353609 0.031288 -5.80434e-20)
(0.0353609 0.0320001 -9.44012e-20)
(0.0353609 0.0326796 1.51324e-19)
(0.0353609 0.0333279 -4.97856e-20)
(0.0353609 0.0339464 9.42484e-21)
(0.0353609 0.0345365 -1.24393e-21)
(0.0353609 0.0350996 2.24962e-19)
(0.0353609 0.0356368 -7.51375e-20)
(0.0353609 0.0361494 -1.35372e-19)
(0.0353609 0.0366384 0)
(0.0353609 0.037105 1.16087e-19)
(0.0353609 0.0375502 -7.03589e-20)
(0.0353609 0.0379749 2.12721e-19)
(0.0353609 0.0383802 2.29153e-19)
(0.0353609 0.0387668 -1.36991e-20)
(0.0353609 0.0391357 -1.61046e-19)
(0.0353609 0.0394877 -1.01094e-20)
(0.0353609 0.0398235 1.0922e-19)
(0.0353609 0.0401439 -1.24976e-21)
(0.0353609 0.0404496 1.21074e-20)
(0.0353609 0.0407413 1.94343e-19)
(0.0353609 0.0410196 9.29939e-20)
(0.0353609 0.0412851 -2.02302e-19)
(0.0353609 0.0415384 1.03621e-19)
(0.0353609 0.0417801 1.10956e-20)
(0.0353609 0.0420107 2.28583e-19)
(0.0353609 0.0422307 -5.91449e-20)
(0.0412889 0.00143233 0)
(0.0412889 0.00328377 -3.79051e-21)
(0.0412889 0.00523782 -1.2134e-21)
(0.0412889 0.00712806 -3.07923e-20)
(0.0412889 0.00893993 3.15244e-21)
(0.0412889 0.0106723 0)
(0.0412889 0.0123272 -7.95156e-20)
(0.0412889 0.0139072 -5.57986e-20)
(0.0412889 0.0154153 -7.1295e-20)
(0.0412889 0.0168548 6.00096e-22)
(0.0412889 0.0182284 -1.31769e-19)
(0.0412889 0.0195393 3.80454e-20)
(0.0412889 0.0207902 5.43355e-20)
(0.0412889 0.0219837 9.75349e-20)
(0.0412889 0.0231226 2.53922e-21)
(0.0412889 0.0242093 8.50754e-21)
(0.0412889 0.0252462 -3.8787e-20)
(0.0412889 0.0262355 4.0484e-20)
(0.0412889 0.0271794 0)
(0.0412889 0.0280801 3.99129e-20)
(0.0412889 0.0289394 9.17325e-20)
(0.0412889 0.0297593 -1.26015e-19)
(0.0412889 0.0305416 0)
(0.0412889 0.031288 0)
(0.0412889 0.0320001 9.22309e-20)
(0.0412889 0.0326796 4.7329e-20)
(0.0412889 0.0333279 4.8641e-20)
(0.0412889 0.0339464 1.15529e-19)
(0.0412889 0.0345365 5.03198e-20)
(0.0412889 0.0350996 2.79137e-19)
(0.0412889 0.0356368 -1.29464e-20)
(0.0412889 0.0361494 -2.34135e-19)
(0.0412889 0.0366384 0)
(0.0412889 0.037105 -7.48924e-20)
(0.0412889 0.0375502 1.25743e-19)
(0.0412889 0.0379749 1.4897e-19)
(0.0412889 0.0383802 -1.93077e-19)
(0.0412889 0.0387668 -8.98274e-20)
(0.0412889 0.0391357 -3.03217e-19)
(0.0412889 0.0394877 7.15236e-20)
(0.0412889 0.0398235 1.01358e-19)
(0.0412889 0.0401439 4.76315e-21)
(0.0412889 0.0404496 -6.0865e-20)
(0.0412889 0.0407413 1.07743e-19)
(0.0412889 0.0410196 -1.97435e-19)
(0.0412889 0.0412851 0)
(0.0412889 0.0415384 -1.10535e-19)
(0.0412889 0.0417801 1.27215e-19)
(0.0412889 0.0420107 -3.00857e-19)
(0.0412889 0.0422307 -1.26409e-19)
(0.0473563 0.00143233 0)
(0.0473563 0.00328377 1.14026e-21)
(0.0473563 0.00523782 -2.80423e-20)
(0.0473563 0.00712806 -2.70796e-22)
(0.0473563 0.00893993 3.15244e-21)
(0.0473563 0.0106723 -2.77176e-20)
(0.0473563 0.0123272 5.84399e-22)
(0.0473563 0.0139072 -8.09778e-20)
(0.0473563 0.0154153 -5.96107e-22)
(0.0473563 0.0168548 6.69978e-20)
(0.0473563 0.0182284 4.09838e-20)
(0.0473563 0.0195393 -8.01402e-20)
(0.0473563 0.0207902 7.99411e-21)
(0.0473563 0.0219837 1.28861e-19)
(0.0473563 0.0231226 8.49794e-21)
(0.0473563 0.0242093 -1.53539e-19)
(0.0473563 0.0252462 9.17266e-20)
(0.0473563 0.0262355 8.50805e-20)
(0.0473563 0.0271794 4.00159e-20)
(0.0473563 0.0280801 1.14167e-19)
(0.0473563 0.0289394 1.23586e-21)
(0.0473563 0.0297593 9.17769e-21)
(0.0473563 0.0305416 0)
(0.0473563 0.031288 9.39235e-20)
(0.0473563 0.0320001 0)
(0.0473563 0.0326796 4.62409e-20)
(0.0473563 0.0333279 -2.4961e-19)
(0.0473563 0.0339464 -2.95983e-19)
(0.0473563 0.0345365 4.91344e-20)
(0.0473563 0.0350996 1.05155e-19)
(0.0473563 0.0356368 -1.20214e-19)
(0.0473563 0.0361494 6.0176e-20)
(0.0473563 0.0366384 0)
(0.0473563 0.037105 -1.41871e-20)
(0.0473563 0.0375502 -1.2886e-19)
(0.0473563 0.0379749 1.26424e-20)
(0.0473563 0.0383802 1.5653e-20)
(0.0473563 0.0387668 -1.36991e-20)
(0.0473563 0.0391357 -7.11252e-20)
(0.0473563 0.0394877 6.37734e-20)
(0.0473563 0.0398235 1.67544e-20)
(0.0473563 0.0401439 8.45995e-20)
(0.0473563 0.0404496 1.21074e-20)
(0.0473563 0.0407413 8.76678e-20)
(0.0473563 0.0410196 -1.25052e-21)
(0.0473563 0.0412851 0)
(0.0473563 0.0415384 8.09282e-20)
(0.0473563 0.0417801 2.26517e-19)
(0.0473563 0.0420107 -1.15657e-20)
(0.0473563 0.0422307 1.09273e-19)
(0.0535665 0.00143233 0)
(0.0535665 0.00328377 1.14026e-21)
(0.0535665 0.00523782 -1.2134e-21)
(0.0535665 0.00712806 2.75115e-20)
(0.0535665 0.00893993 -1.22881e-20)
(0.0535665 0.0106723 0)
(0.0535665 0.0123272 5.84399e-22)
(0.0535665 0.0139072 -5.08128e-21)
(0.0535665 0.0154153 -4.3711e-20)
(0.0535665 0.0168548 -3.77669e-20)
(0.0535665 0.0182284 -1.69053e-19)
(0.0535665 0.0195393 -1.62531e-19)
(0.0535665 0.0207902 1.29621e-19)
(0.0535665 0.0219837 1.15033e-20)
(0.0535665 0.0231226 8.49794e-21)
(0.0535665 0.0242093 8.47545e-20)
(0.0535665 0.0252462 2.1084e-19)
(0.0535665 0.0262355 3.8644e-20)
(0.0535665 0.0271794 2.40553e-19)
(0.0535665 0.0280801 -7.61902e-21)
(0.0535665 0.0289394 8.19068e-20)
(0.0535665 0.0297593 -7.30443e-20)
(0.0535665 0.0305416 0)
(0.0535665 0.031288 0)
(0.0535665 0.0320001 0)
(0.0535665 0.0326796 5.99613e-21)
(0.0535665 0.0333279 0)
(0.0535665 0.0339464 -1.33907e-19)
(0.0535665 0.0345365 -1.24393e-21)
(0.0535665 0.0350996 1.2446e-21)
(0.0535665 0.0356368 3.71869e-19)
(0.0535665 0.0361494 -1.24579e-21)
(0.0535665 0.0366384 0)
(0.0535665 0.037105 -1.41871e-20)
(0.0535665 0.0375502 -6.00784e-21)
(0.0535665 0.0379749 -2.54175e-19)
(0.0535665 0.0383802 1.56676e-19)
(0.0535665 0.0387668 -1.59582e-19)
(0.0535665 0.0391357 0)
(0.0535665 0.0394877 -1.61211e-20)
(0.0535665 0.0398235 1.67544e-20)
(0.0535665 0.0401439 1.54752e-19)
(0.0535665 0.0404496 1.21074e-20)
(0.0535665 0.0407413 8.56811e-20)
(0.0535665 0.0410196 -1.8305e-19)
(0.0535665 0.0412851 0)
(0.0535665 0.0415384 9.07153e-20)
(0.0535665 0.0417801 1.10453e-19)
(0.0535665 0.0420107 -1.15657e-20)
(0.0535665 0.0422307 -1.25153e-21)
(0.0599229 0.00143233 -3.35311e-21)
(0.0599229 0.00328377 6.37919e-21)
(0.0599229 0.00523782 -2.62285e-20)
(0.0599229 0.00712806 -6.64384e-20)
(0.0599229 0.00893993 -4.35425e-20)
(0.0599229 0.0106723 -2.64578e-20)
(0.0599229 0.0123272 -1.01229e-19)
(0.0599229 0.0139072 -5.08128e-21)
(0.0599229 0.0154153 1.0766e-19)
(0.0599229 0.0168548 3.55555e-21)
(0.0599229 0.0182284 2.96212e-21)
(0.0599229 0.0195393 4.12164e-20)
(0.0599229 0.0207902 -3.26525e-20)
(0.0599229 0.0219837 8.61858e-20)
(0.0599229 0.0231226 1.44567e-20)
(0.0599229 0.0242093 -1.46445e-19)
(0.0599229 0.0252462 -3.60817e-20)
(0.0599229 0.0262355 -4.37295e-20)
(0.0599229 0.0271794 -4.41749e-20)
(0.0599229 0.0280801 3.71125e-20)
(0.0599229 0.0289394 -3.21879e-20)
(0.0599229 0.0297593 5.53308e-20)
(0.0599229 0.0305416 4.10197e-20)
(0.0599229 0.031288 4.19674e-20)
(0.0599229 0.0320001 1.7203e-19)
(0.0599229 0.0326796 2.76827e-19)
(0.0599229 0.0333279 0)
(0.0599229 0.0339464 -1.30612e-19)
(0.0599229 0.0345365 -9.7421e-20)
(0.0599229 0.0350996 1.2446e-21)
(0.0599229 0.0356368 -2.23734e-19)
(0.0599229 0.0361494 -1.07042e-19)
(0.0599229 0.0366384 0)
(0.0599229 0.037105 1.05048e-19)
(0.0599229 0.0375502 0)
(0.0599229 0.0379749 1.26424e-20)
(0.0599229 0.0383802 -1.91433e-19)
(0.0599229 0.0387668 3.25283e-19)
(0.0599229 0.0391357 0)
(0.0599229 0.0394877 -1.63182e-19)
(0.0599229 0.0398235 2.27667e-20)
(0.0599229 0.0401439 -1.41639e-19)
(0.0599229 0.0404496 -1.46434e-19)
(0.0599229 0.0407413 7.26427e-21)
(0.0599229 0.0410196 -1.05166e-19)
(0.0599229 0.0412851 0)
(0.0599229 0.0415384 7.64925e-20)
(0.0599229 0.0417801 -1.89066e-19)
(0.0599229 0.0420107 -2.19951e-19)
(0.0599229 0.0422307 1.04249e-19)
(0.0664288 0.00143233 0)
(0.0664288 0.00328377 1.14026e-21)
(0.0664288 0.00523782 -1.2134e-21)
(0.0664288 0.00712806 1.74089e-20)
(0.0664288 0.00893993 3.15244e-21)
(0.0664288 0.0106723 0)
(0.0664288 0.0123272 5.84399e-22)
(0.0664288 0.0139072 1.66867e-20)
(0.0664288 0.0154153 -5.96107e-22)
(0.0664288 0.0168548 4.29999e-20)
(0.0664288 0.0182284 0)
(0.0664288 0.0195393 0)
(0.0664288 0.0207902 8.75551e-20)
(0.0664288 0.0219837 1.6041e-19)
(0.0664288 0.0231226 8.49794e-21)
(0.0664288 0.0242093 -1.06629e-19)
(0.0664288 0.0252462 -1.38974e-19)
(0.0664288 0.0262355 7.9749e-20)
(0.0664288 0.0271794 0)
(0.0664288 0.0280801 -7.61902e-21)
(0.0664288 0.0289394 3.21222e-19)
(0.0664288 0.0297593 3.19043e-21)
(0.0664288 0.0305416 0)
(0.0664288 0.031288 4.10026e-20)
(0.0664288 0.0320001 0)
(0.0664288 0.0326796 1.8449e-19)
(0.0664288 0.0333279 0)
(0.0664288 0.0339464 -1.33392e-19)
(0.0664288 0.0345365 -1.01211e-19)
(0.0664288 0.0350996 -2.04574e-19)
(0.0664288 0.0356368 -2.75048e-19)
(0.0664288 0.0361494 -1.24579e-21)
(0.0664288 0.0366384 0)
(0.0664288 0.037105 1.57757e-19)
(0.0664288 0.0375502 0)
(0.0664288 0.0379749 1.26424e-20)
(0.0664288 0.0383802 1.5653e-20)
(0.0664288 0.0387668 -1.36991e-20)
(0.0664288 0.0391357 1.44685e-19)
(0.0664288 0.0394877 -1.61211e-20)
(0.0664288 0.0398235 1.67544e-20)
(0.0664288 0.0401439 2.2813e-19)
(0.0664288 0.0404496 1.81208e-20)
(0.0664288 0.0407413 1.68451e-19)
(0.0664288 0.0410196 -1.25052e-21)
(0.0664288 0.0412851 0)
(0.0664288 0.0415384 -1.66631e-20)
(0.0664288 0.0417801 1.10956e-20)
(0.0664288 0.0420107 -1.15657e-20)
(0.0664288 0.0422307 4.765e-21)
(0.0730878 0.00143233 3.0929e-21)
(0.0730878 0.00328377 1.05596e-20)
(0.0730878 0.00523782 -1.2134e-21)
(0.0730878 0.00712806 5.1549e-20)
(0.0730878 0.00893993 -7.17236e-20)
(0.0730878 0.0106723 0)
(0.0730878 0.0123272 4.63873e-20)
(0.0730878 0.0139072 1.04193e-19)
(0.0730878 0.0154153 -5.96107e-22)
(0.0730878 0.0168548 3.91376e-20)
(0.0730878 0.0182284 -2.32944e-19)
(0.0730878 0.0195393 -7.00532e-20)
(0.0730878 0.0207902 1.21825e-19)
(0.0730878 0.0219837 8.52729e-21)
(0.0730878 0.0231226 -1.69089e-19)
(0.0730878 0.0242093 8.50754e-21)
(0.0730878 0.0252462 7.32255e-21)
(0.0730878 0.0262355 3.00656e-20)
(0.0730878 0.0271794 -2.30722e-19)
(0.0730878 0.0280801 -7.61902e-21)
(0.0730878 0.0289394 1.23586e-21)
(0.0730878 0.0297593 1.5165e-20)
(0.0730878 0.0305416 0)
(0.0730878 0.031288 -8.01198e-20)
(0.0730878 0.0320001 0)
(0.0730878 0.0326796 5.99613e-21)
(0.0730878 0.0333279 -9.25998e-20)
(0.0730878 0.0339464 9.42484e-21)
(0.0730878 0.0345365 9.05618e-20)
(0.0730878 0.0350996 1.49265e-19)
(0.0730878 0.0356368 -6.18154e-20)
(0.0730878 0.0361494 4.759e-21)
(0.0730878 0.0366384 1.1044e-19)
(0.0730878 0.037105 1.53942e-19)
(0.0730878 0.0375502 -6.00784e-21)
(0.0730878 0.0379749 1.22646e-19)
(0.0730878 0.0383802 7.58078e-20)
(0.0730878 0.0387668 -7.68876e-21)
(0.0730878 0.0391357 0)
(0.0730878 0.0394877 3.32498e-19)
(0.0730878 0.0398235 3.08631e-19)
(0.0730878 0.0401439 -1.24976e-21)
(0.0730878 0.0404496 1.81208e-20)
(0.0730878 0.0407413 -8.35041e-20)
(0.0730878 0.0410196 -8.9234e-20)
(0.0730878 0.0412851 6.01494e-21)
(0.0730878 0.0415384 -1.82476e-19)
(0.0730878 0.0417801 2.08449e-19)
(0.0730878 0.0420107 -5.54949e-21)
(0.0730878 0.0422307 -3.21417e-19)
(0.0799036 0.00143233 0)
(0.0799036 0.00328377 -7.4368e-21)
(0.0799036 0.00523782 -1.2134e-21)
(0.0799036 0.00712806 -2.70796e-22)
(0.0799036 0.00893993 3.15244e-21)
(0.0799036 0.0106723 0)
(0.0799036 0.0123272 -2.47134e-20)
(0.0799036 0.0139072 -5.08128e-21)
(0.0799036 0.0154153 -2.02384e-20)
(0.0799036 0.0168548 6.00096e-22)
(0.0799036 0.0182284 0)
(0.0799036 0.0195393 -7.72772e-20)
(0.0799036 0.0207902 7.99411e-21)
(0.0799036 0.0219837 4.33518e-20)
(0.0799036 0.0231226 1.18559e-19)
(0.0799036 0.0242093 7.7981e-20)
(0.0799036 0.0252462 -1.32325e-19)
(0.0799036 0.0262355 0)
(0.0799036 0.0271794 -1.12846e-19)
(0.0799036 0.0280801 3.45009e-20)
(0.0799036 0.0289394 1.23586e-21)
(0.0799036 0.0297593 9.17769e-21)
(0.0799036 0.0305416 0)
(0.0799036 0.031288 -5.99211e-21)
(0.0799036 0.0320001 0)
(0.0799036 0.0326796 -1.29489e-19)
(0.0799036 0.0333279 8.4611e-20)
(0.0799036 0.0339464 9.42484e-21)
(0.0799036 0.0345365 -1.24393e-21)
(0.0799036 0.0350996 1.92517e-20)
(0.0799036 0.0356368 -6.06919e-20)
(0.0799036 0.0361494 -1.24579e-21)
(0.0799036 0.0366384 1.59055e-19)
(0.0799036 0.037105 1.50215e-19)
(0.0799036 0.0375502 -2.1873e-19)
(0.0799036 0.0379749 1.86511e-20)
(0.0799036 0.0383802 1.5653e-20)
(0.0799036 0.0387668 5.93067e-20)
(0.0799036 0.0391357 -6.01102e-21)
(0.0799036 0.0394877 2.58988e-19)
(0.0799036 0.0398235 1.67544e-20)
(0.0799036 0.0401439 -1.61432e-19)
(0.0799036 0.0404496 -1.41762e-19)
(0.0799036 0.0407413 4.09957e-19)
(0.0799036 0.0410196 -7.265e-21)
(0.0799036 0.0412851 6.01494e-21)
(0.0799036 0.0415384 1.75137e-19)
(0.0799036 0.0417801 1.13658e-19)
(0.0799036 0.0420107 -1.15657e-20)
(0.0799036 0.0422307 9.71387e-20)
(0.0868797 0.00143233 0)
(0.0868797 0.00328377 -2.4092e-21)
(0.0868797 0.00523782 -1.19827e-20)
(0.0868797 0.00712806 3.41218e-20)
(0.0868797 0.00893993 -5.47056e-20)
(0.0868797 0.0106723 -4.96666e-20)
(0.0868797 0.0123272 -2.12761e-20)
(0.0868797 0.0139072 -5.08128e-21)
(0.0868797 0.0154153 -5.96107e-22)
(0.0868797 0.0168548 3.7386e-20)
(0.0868797 0.0182284 -3.56456e-20)
(0.0868797 0.0195393 -1.8019e-19)
(0.0868797 0.0207902 7.99411e-21)
(0.0868797 0.0219837 8.52729e-21)
(0.0868797 0.0231226 8.49794e-21)
(0.0868797 0.0242093 8.50754e-21)
(0.0868797 0.0252462 4.74012e-20)
(0.0868797 0.0262355 7.47768e-20)
(0.0868797 0.0271794 1.39215e-19)
(0.0868797 0.0280801 -7.61902e-21)
(0.0868797 0.0289394 1.23586e-21)
(0.0868797 0.0297593 9.17769e-21)
(0.0868797 0.0305416 -4.33654e-20)
(0.0868797 0.031288 1.91196e-19)
(0.0868797 0.0320001 0)
(0.0868797 0.0326796 0)
(0.0868797 0.0333279 4.73308e-20)
(0.0868797 0.0339464 -3.31072e-20)
(0.0868797 0.0345365 -1.24393e-21)
(0.0868797 0.0350996 5.24348e-20)
(0.0868797 0.0356368 -1.895e-20)
(0.0868797 0.0361494 -5.54495e-20)
(0.0868797 0.0366384 -4.98435e-20)
(0.0868797 0.037105 1.58587e-19)
(0.0868797 0.0375502 -1.06851e-19)
(0.0868797 0.0379749 1.86511e-20)
(0.0868797 0.0383802 -5.37868e-20)
(0.0868797 0.0387668 -1.38875e-19)
(0.0868797 0.0391357 7.38831e-20)
(0.0868797 0.0394877 -8.03805e-20)
(0.0868797 0.0398235 -2.56391e-19)
(0.0868797 0.0401439 -1.24976e-21)
(0.0868797 0.0404496 1.62578e-19)
(0.0868797 0.0407413 8.24258e-20)
(0.0868797 0.0410196 -1.25052e-21)
(0.0868797 0.0412851 2.56471e-19)
(0.0868797 0.0415384 7.42322e-20)
(0.0868797 0.0417801 2.00025e-19)
(0.0868797 0.0420107 -5.54949e-21)
(0.0868797 0.0422307 -2.17574e-19)
(0.0940199 0.00143233 8.76629e-21)
(0.0940199 0.00328377 4.99785e-22)
(0.0940199 0.00523782 -1.2134e-21)
(0.0940199 0.00712806 -3.39053e-20)
(0.0940199 0.00893993 -6.6871e-20)
(0.0940199 0.0106723 -2.35531e-20)
(0.0940199 0.0123272 5.84399e-22)
(0.0940199 0.0139072 -4.76863e-20)
(0.0940199 0.0154153 -5.96107e-22)
(0.0940199 0.0168548 3.65403e-20)
(0.0940199 0.0182284 0)
(0.0940199 0.0195393 0)
(0.0940199 0.0207902 7.99411e-21)
(0.0940199 0.0219837 -3.06665e-20)
(0.0940199 0.0231226 8.49794e-21)
(0.0940199 0.0242093 8.50754e-21)
(0.0940199 0.0252462 7.32255e-21)
(0.0940199 0.0262355 0)
(0.0940199 0.0271794 -7.39851e-20)
(0.0940199 0.0280801 2.39835e-19)
(0.0940199 0.0289394 1.23586e-21)
(0.0940199 0.0297593 -6.23348e-20)
(0.0940199 0.0305416 0)
(0.0940199 0.031288 0)
(0.0940199 0.0320001 0)
(0.0940199 0.0326796 0)
(0.0940199 0.0333279 0)
(0.0940199 0.0339464 9.42484e-21)
(0.0940199 0.0345365 -1.24393e-21)
(0.0940199 0.0350996 -4.75775e-21)
(0.0940199 0.0356368 8.4208e-20)
(0.0940199 0.0361494 4.759e-21)
(0.0940199 0.0366384 0)
(0.0940199 0.037105 2.55827e-19)
(0.0940199 0.0375502 0)
(0.0940199 0.0379749 -1.55656e-19)
(0.0940199 0.0383802 7.17536e-20)
(0.0940199 0.0387668 -1.36991e-20)
(0.0940199 0.0391357 0)
(0.0940199 0.0394877 -1.61211e-20)
(0.0940199 0.0398235 1.67544e-20)
(0.0940199 0.0401439 -1.24976e-21)
(0.0940199 0.0404496 1.81208e-20)
(0.0940199 0.0407413 8.06979e-20)
(0.0940199 0.0410196 -8.37095e-20)
(0.0940199 0.0412851 -1.65229e-19)
(0.0940199 0.0415384 -1.06478e-20)
(0.0940199 0.0417801 1.10956e-20)
(0.0940199 0.0420107 -1.15657e-20)
(0.0940199 0.0422307 -1.01186e-19)
(0.101328 0.00143233 0)
(0.101328 0.00328377 1.14026e-21)
(0.101328 0.00523782 -1.2134e-21)
(0.101328 0.00712806 3.2623e-20)
(0.101328 0.00893993 2.93938e-20)
(0.101328 0.0106723 0)
(0.101328 0.0123272 -4.11495e-20)
(0.101328 0.0139072 -5.08128e-21)
(0.101328 0.0154153 -5.96107e-22)
(0.101328 0.0168548 -3.45138e-20)
(0.101328 0.0182284 -3.69876e-20)
(0.101328 0.0195393 0)
(0.101328 0.0207902 7.99411e-21)
(0.101328 0.0219837 2.41822e-19)
(0.101328 0.0231226 8.49794e-21)
(0.101328 0.0242093 8.50754e-21)
(0.101328 0.0252462 -1.94e-19)
(0.101328 0.0262355 7.16496e-20)
(0.101328 0.0271794 1.05643e-19)
(0.101328 0.0280801 -7.61902e-21)
(0.101328 0.0289394 -6.73146e-20)
(0.101328 0.0297593 -1.36546e-19)
(0.101328 0.0305416 0)
(0.101328 0.031288 -5.99211e-21)
(0.101328 0.0320001 -1.55617e-19)
(0.101328 0.0326796 8.27762e-20)
(0.101328 0.0333279 7.89085e-20)
(0.101328 0.0339464 9.66221e-20)
(0.101328 0.0345365 -1.24393e-21)
(0.101328 0.0350996 3.15187e-19)
(0.101328 0.0356368 -2.47592e-19)
(0.101328 0.0361494 -9.92669e-20)
(0.101328 0.0366384 1.42734e-19)
(0.101328 0.037105 4.10598e-20)
(0.101328 0.0375502 0)
(0.101328 0.0379749 5.94866e-20)
(0.101328 0.0383802 -1.05988e-19)
(0.101328 0.0387668 1.56926e-19)
(0.101328 0.0391357 0)
(0.101328 0.0394877 -8.94832e-20)
(0.101328 0.0398235 -1.86514e-19)
(0.101328 0.0401439 6.50318e-20)
(0.101328 0.0404496 1.81208e-20)
(0.101328 0.0407413 1.56769e-19)
(0.101328 0.0410196 -2.37341e-19)
(0.101328 0.0412851 2.39346e-19)
(0.101328 0.0415384 -1.66631e-20)
(0.101328 0.0417801 1.10956e-20)
(0.101328 0.0420107 -1.11603e-19)
(0.101328 0.0422307 9.05075e-20)
(0.108808 0.00143233 2.75335e-21)
(0.108808 0.00328377 -1.12229e-20)
(0.108808 0.00523782 -1.2134e-21)
(0.108808 0.00712806 1.14548e-21)
(0.108808 0.00893993 1.7143e-21)
(0.108808 0.0106723 -7.03516e-20)
(0.108808 0.0123272 5.84399e-22)
(0.108808 0.0139072 -5.08128e-21)
(0.108808 0.0154153 -5.96107e-22)
(0.108808 0.0168548 3.55555e-21)
(0.108808 0.0182284 -1.35935e-19)
(0.108808 0.0195393 0)
(0.108808 0.0207902 4.59524e-20)
(0.108808 0.0219837 4.32342e-20)
(0.108808 0.0231226 -9.23151e-20)
(0.108808 0.0242093 8.50754e-21)
(0.108808 0.0252462 -1.19919e-19)
(0.108808 0.0262355 3.80568e-20)
(0.108808 0.0271794 -6.49162e-20)
(0.108808 0.0280801 1.95931e-19)
(0.108808 0.0289394 -1.32713e-19)
(0.108808 0.0297593 9.17769e-21)
(0.108808 0.0305416 6.97133e-20)
(0.108808 0.031288 0)
(0.108808 0.0320001 7.30914e-20)
(0.108808 0.0326796 8.1011e-20)
(0.108808 0.0333279 0)
(0.108808 0.0339464 9.42484e-21)
(0.108808 0.0345365 -1.24393e-21)
(0.108808 0.0350996 9.15316e-20)
(0.108808 0.0356368 8.00651e-20)
(0.108808 0.0361494 -1.24579e-21)
(0.108808 0.0366384 -4.64842e-20)
(0.108808 0.037105 -5.62881e-20)