/*--------------------------------*- C++ -*----------------------------------*\
| =========                 |                                                 |
| \\      /  F ield         | OpenFOAM: The Open Source CFD Toolbox           |
|  \\    /   O peration     | Version:  2.3.1                                 |
|   \\  /    A nd           | Web:      www.OpenFOAM.org                      |
|    \\/     M anipulation  |                                                 |
\*---------------------------------------------------------------------------*/
FoamFile
{
    version     2.0;
    format      ascii;
    class       volScalarField;
    object      T;
}
// * * * * * * * * * * * * * * * * * * * * * * * * * * * * * * * * * * * * * //

dimensions      [0 0 0 1 0 0 0];

internalField   uniform 373;

boundaryField
{
    axis
    {
        type            empty;
    }

    inlet
    {
        type            fixedValue;
        value           uniform 373;
    }

    wall
    {
        type            fixedValue; 
 //       value           uniform 1573;

        value           nonuniform List<scalar>
       100
       (

388
449
459
436
429
494
540
678
806
940
1095
1236
1307
1360
1405
1441
1466
1486
1501
1517
1527
1537
1543
1549
1555
1559
1563
1567
1570
1572
1575
1577
1578
1580
1581
1582
1583
1583
1584
1584
1585
1585
1586
1586
1586
1586
1586
1586
1586
1586
1585
1584
1583
1582
1581
1579
1577
1575
1573
1571
1567
1563
1559
1552
1546
1538
1528
1516
1501
1483
1462
1444
1422
1392
1357
1325
1229
1133
1034
949
949
949
949
949
949
949
949
949
949
949
949
949
949
949
949
949
949
949
949
949

       );
        



    }
    outlet
    {
        type            zeroGradient;
    }
   front
    {
        type            wedge;
    }
   back
    {
        type            wedge;
    }

}

// ************************************************************************* //
