/*--------------------------------*- C++ -*----------------------------------*\
| =========                 |                                                 |
| \\      /  F ield         | OpenFOAM: The Open Source CFD Toolbox           |
|  \\    /   O peration     | Version:  5.x                                   |
|   \\  /    A nd           | Web:      www.OpenFOAM.org                      |
|    \\/     M anipulation  |                                                 |
\*---------------------------------------------------------------------------*/
FoamFile
{
    version     2.0;
    format      ascii;
    class       volScalarField;
    location    "0.06";
    object      rho;
}
// * * * * * * * * * * * * * * * * * * * * * * * * * * * * * * * * * * * * * //

dimensions      [1 -3 0 0 0 0 0];

internalField   nonuniform List<scalar> 
7950
(
0.02062935984
0.0206207155
0.02060168088
0.02057270788
0.02053381519
0.02048494784
0.02042601432
0.02035689622
0.02027745189
0.02018751844
0.0200869132
0.01997543496
0.01985286535
0.01971897041
0.01957350235
0.01941620168
0.0192467997
0.01906502147
0.01887058923
0.01866322641
0.01844266224
0.01820863697
0.01796090785
0.01769925578
0.01742349264
0.01713346942
0.01682908492
0.01651029509
0.01617712276
0.01582966784
0.01546811738
0.01509275575
0.01470397409
0.0143022792
0.013888301
0.01346279849
0.01302666367
0.01258092287
0.01212673527
0.01166538828
0.01119828935
0.01072695435
0.01025299232
0.00977808697
0.009303975046
0.008832422342
0.008365197812
0.007904046683
0.007450663406
0.007006665373
0.01111138422
0.0111075633
0.0110991591
0.01108639299
0.01106930585
0.01104791706
0.01102224084
0.01099229059
0.01095808047
0.01091962626
0.01087694598
0.0108300603
0.010778993
0.01072377141
0.01066442681
0.01060099495
0.01053351644
0.01046203736
0.01038660969
0.01030729194
0.01022414965
0.01013725605
0.01004669261
0.009952549705
0.00985492721
0.00975393517
0.009649694423
0.009542337257
0.009432008041
0.009318863869
0.009203075187
0.009084826417
0.008964316572
0.008841759872
0.008717386361
0.008591442535
0.008464191995
0.008335916147
0.008206914968
0.008077507882
0.007948034773
0.007818857212
0.007690359955
0.007562952812
0.007437073006
0.007313188176
0.007191800207
0.007073450165
0.006958724649
0.006848263997
0.008603042856
0.008601297519
0.008597459781
0.008591633624
0.008583842051
0.008574099654
0.008562420073
0.008548817892
0.008533309335
0.008515912589
0.008496647996
0.008475538181
0.008452608155
0.008427885409
0.008401399998
0.008373184628
0.008343274735
0.008311708575
0.008278527304
0.008243775064
0.00820749907
0.008169749691
0.008130580533
0.008090048519
0.008048213966
0.008005140658
0.007960895911
0.007915550638
0.007869179399
0.007821860444
0.007773675751
0.00772471104
0.007675055786
0.007624803201
0.007574050211
0.007522897396
0.007471448914
0.00741981239
0.007368098769
0.007316422124
0.007264899415
0.007213650189
0.007162796201
0.007112460948
0.0070627691
0.007013845796
0.006965815776
0.006918802329
0.00687292599
0.006828302946
0.007643250166
0.007642418986
0.007640591587
0.00763781811
0.007634110449
0.007629476798
0.007623925196
0.007617464412
0.007610104263
0.007601855752
0.007592731133
0.007582743954
0.00757190908
0.007560242706
0.007547762373
0.007534486968
0.007520436738
0.007505633283
0.007490099564
0.007473859899
0.007456939958
0.007439366758
0.007421168656
0.007402375332
0.007383017778
0.007363128278
0.007342740382
0.007321888883
0.007300609778
0.007278940233
0.007256918538
0.007234584051
0.007211977148
0.007189139146
0.007166112236
0.007142939393
0.007119664285
0.007096331165
0.00707298476
0.00704967014
0.007026432577
0.007003317399
0.006980369817
0.006957634752
0.006935156643
0.006912979243
0.006891145407
0.006869696868
0.006848674006
0.00682811562
0.007225101577
0.007224697365
0.00722380874
0.007222460237
0.007220657869
0.007218405923
0.007215708683
0.007212570852
0.007208997706
0.007204995151
0.007200569755
0.007195728754
0.00719048006
0.007184832259
0.007178794607
0.007172377024
0.007165590085
0.007158445014
0.007150953668
0.007143128529
0.007134982686
0.007126529824
0.007117784205
0.00710876065
0.007099474517
0.007089941684
0.007080178519
0.007070201859
0.007060028984
0.007049677581
0.00703916572
0.007028511815
0.007017734591
0.007006853045
0.006995886407
0.006984854097
0.006973775678
0.006962670814
0.006951559218
0.006940460603
0.00692939463
0.006918380849
0.006907438653
0.006896587213
0.006885845424
0.00687523185
0.006864764662
0.006854461585
0.006844339841
0.006834416095
0.007034545262
0.007034346508
0.007033909577
0.007033246569
0.007032360495
0.007031253534
0.007029927881
0.007028385949
0.00702663045
0.007024664415
0.007022491211
0.007020114543
0.007017538453
0.007014767319
0.007011805847
0.00700865907
0.007005332338
0.007001831312
0.006998161955
0.006994330524
0.006990343559
0.006986207873
0.006981930542
0.006977518892
0.006972980487
0.006968323114
0.006963554773
0.00695868366
0.006953718152
0.006948666792
0.006943538272
0.006938341415
0.006933085161
0.006927778543
0.006922430676
0.00691705073
0.006911647914
0.006906231459
0.006900810591
0.006895394516
0.006889992396
0.00688461333
0.006879266331
0.006873960307
0.006868704038
0.006863506159
0.006858375137
0.006853319249
0.00684834657
0.006843464946
0.006948207622
0.006948109277
0.006947893083
0.006947565036
0.006947126637
0.006946578979
0.006945923167
0.006945160418
0.006944292099
0.006943319735
0.006942245023
0.006941069826
0.006939796175
0.006938426266
0.006936962459
0.006935407275
0.006933763388
0.006932033625
0.006930220959
0.006928328503
0.006926359508
0.006924317355
0.006922205547
0.006920027706
0.006917787567
0.006915488967
0.006913135839
0.006910732209
0.006908282181
0.006905789936
0.00690325972
0.006900695837
0.00689810264
0.006895484521
0.006892845907
0.006890191246
0.006887525
0.006884851636
0.006882175617
0.006879501394
0.006876833393
0.00687417601
0.006871533601
0.006868910472
0.006866310869
0.006863738972
0.006861198887
0.006858694634
0.00685623014
0.006853809234
0.006911672425
0.006911623582
0.00691151621
0.006911353289
0.006911135566
0.006910863587
0.006910537905
0.006910159129
0.006909727941
0.006909245105
0.006908711469
0.006908127964
0.006907495604
0.006906815485
0.006906088786
0.006905316761
0.006904500745
0.006903642144
0.006902742438
0.006901803175
0.00690082597
0.006899812502
0.006898764508
0.006897683786
0.006896572184
0.006895431601
0.006894263985
0.006893071323
0.006891855645
0.006890619012
0.006889363521
0.006888091291
0.006886804469
0.006885505217
0.006884195714
0.006882878149
0.006881554716
0.006880227612
0.006878899031
0.006877571162
0.006876246181
0.00687492625
0.006873613511
0.006872310082
0.006871018054
0.006869739488
0.006868476405
0.006867230791
0.006866004585
0.006864799682
0.006899462988
0.006899438677
0.006899385234
0.006899304141
0.006899195773
0.0068990604
0.006898898298
0.006898709772
0.006898495162
0.006898254849
0.006897989256
0.006897698847
0.006897384127
0.006897045644
0.006896683983
0.006896299772
0.006895893673
0.006895466388
0.006895018652
0.006894551237
0.006894064945
0.006893560612
0.006893039101
0.006892501306
0.006891948144
0.006891380561
0.006890799521
0.006890206012
0.006889601041
0.006888985631
0.006888360822
0.006887727665
0.006887087224
0.006886440571
0.006885788787
0.006885132955
0.006884474165
0.006883813503
0.006883152059
0.006882490916
0.006881831153
0.006881173842
0.006880520045
0.006879870813
0.006879227184
0.006878590178
0.006877960802
0.006877340041
0.00687672886
0.006876128199
0.006899276589
0.006899264472
0.006899237837
0.006899197422
0.006899143413
0.006899075946
0.006898995159
0.006898901202
0.006898794245
0.00689867448
0.006898542115
0.006898397384
0.006898240537
0.006898071848
0.006897891609
0.006897700131
0.006897497747
0.006897284803
0.006897061669
0.006896828726
0.006896586376
0.006896335035
0.006896075131
0.006895807111
0.006895531431
0.006895248561
0.006894958982
0.006894663185
0.006894361671
0.00689405495
0.006893743538
0.006893427958
0.006893108741
0.006892786419
0.006892461529
0.006892134612
0.006891806208
0.006891476858
0.006891147105
0.006890817486
0.00689048854
0.006890160799
0.006889834792
0.006889511043
0.006889190066
0.006888872373
0.006888558462
0.006888248825
0.006887943943
0.006887644286
0.006905076421
0.006905070378
0.006905057094
0.006905036937
0.00690501
0.006904976351
0.006904936059
0.006904889198
0.006904835853
0.006904776121
0.006904710104
0.00690463792
0.006904559693
0.00690447556
0.006904385666
0.006904290166
0.006904189227
0.006904083021
0.006903971732
0.006903855552
0.006903734678
0.00690360932
0.00690347969
0.006903346012
0.006903208512
0.006903067425
0.006902922991
0.006902775453
0.006902625063
0.006902472074
0.006902316743
0.006902159331
0.006902000103
0.006901839323
0.006901677259
0.006901514181
0.006901350357
0.006901186059
0.006901021555
0.006900857114
0.006900693005
0.006900529492
0.006900366839
0.006900205308
0.006900045155
0.006899886635
0.006899729996
0.006899575485
0.00689942334
0.006899273796
0.006913875472
0.006913872457
0.006913865829
0.006913855771
0.006913842331
0.006913825542
0.006913805438
0.006913782056
0.00691375544
0.006913725636
0.006913692697
0.00691365668
0.006913617648
0.006913575669
0.006913530816
0.006913483166
0.006913432801
0.006913379809
0.00691332428
0.00691326631
0.006913205998
0.006913143448
0.006913078767
0.006913012066
0.006912943457
0.006912873058
0.006912800988
0.00691272737
0.006912652327
0.006912575987
0.006912498478
0.006912419931
0.006912340475
0.006912260245
0.006912179374
0.006912097995
0.006912016243
0.006911934254
0.006911852161
0.006911770098
0.006911688199
0.006911606597
0.006911525423
0.006911444807
0.006911364878
0.006911285762
0.006911207584
0.006911130467
0.006911054528
0.006910979887
0.006924189577
0.006924188072
0.006924184764
0.006924179745
0.006924173037
0.006924164658
0.006924154625
0.006924142956
0.006924129673
0.006924114798
0.00692409836
0.006924080385
0.006924060905
0.006924039954
0.006924017569
0.006923993789
0.006923968653
0.006923942206
0.006923914493
0.006923885561
0.006923855461
0.006923824244
0.006923791963
0.006923758673
0.006923724432
0.006923689297
0.006923653328
0.006923616586
0.006923579133
0.006923541032
0.006923502348
0.006923463145
0.006923423489
0.006923383446
0.006923343083
0.006923302466
0.006923261663
0.006923220741
0.006923179766
0.006923138807
0.00692309793
0.0069230572
0.006923016683
0.006922976445
0.006922936549
0.006922897058
0.006922858036
0.006922819542
0.006922781637
0.006922744378
0.006935279633
0.006935278882
0.006935277231
0.006935274725
0.006935271377
0.006935267195
0.006935262187
0.006935256363
0.006935249733
0.006935242308
0.006935234103
0.006935225131
0.006935215408
0.006935204951
0.006935193778
0.006935181908
0.006935169362
0.006935156162
0.006935142329
0.006935127888
0.006935112864
0.006935097283
0.00693508117
0.006935064554
0.006935047463
0.006935029925
0.006935011972
0.006934993632
0.006934974938
0.00693495592
0.006934936611
0.006934917043
0.006934897248
0.006934877261
0.006934857113
0.006934836839
0.006934816472
0.006934796045
0.006934775593
0.006934755148
0.006934734743
0.006934714412
0.006934694187
0.006934674102
0.006934654187
0.006934634474
0.006934614995
0.006934595779
0.006934576858
0.006934558259
0.006946777265
0.00694677689
0.006946776065
0.006946774815
0.006946773144
0.006946771056
0.006946768556
0.006946765649
0.006946762339
0.006946758634
0.006946754538
0.006946750059
0.006946745206
0.006946739986
0.006946734409
0.006946728484
0.006946722221
0.006946715632
0.006946708727
0.006946701519
0.006946694019
0.006946686241
0.006946678198
0.006946669904
0.006946661372
0.006946652618
0.006946643656
0.006946634502
0.00694662517
0.006946615677
0.006946606038
0.00694659627
0.006946586389
0.006946576412
0.006946566355
0.006946556234
0.006946546067
0.006946535871
0.006946525661
0.006946515455
0.006946505269
0.00694649512
0.006946485025
0.006946474998
0.006946465057
0.006946455216
0.006946445493
0.0069464359
0.006946426455
0.00694641717
0.006958498775
0.006958498588
0.006958498176
0.006958497552
0.006958496718
0.006958495676
0.006958494428
0.006958492976
0.006958491324
0.006958489474
0.00695848743
0.006958485194
0.006958482772
0.006958480166
0.006958477382
0.006958474424
0.006958471298
0.006958468009
0.006958464562
0.006958460963
0.00695845722
0.006958453337
0.006958449322
0.006958445182
0.006958440923
0.006958436553
0.006958432079
0.006958427509
0.006958422851
0.006958418112
0.0069584133
0.006958408424
0.006958403492
0.006958398511
0.006958393491
0.006958388439
0.006958383363
0.006958378273
0.006958373177
0.006958368082
0.006958362997
0.006958357931
0.006958352891
0.006958347886
0.006958342923
0.006958338011
0.006958333157
0.006958328368
0.006958323653
0.006958319018
0.006970352615
0.006970352522
0.006970352316
0.006970352005
0.006970351588
0.006970351068
0.006970350445
0.006970349721
0.006970348896
0.006970347972
0.006970346952
0.006970345836
0.006970344626
0.006970343326
0.006970341936
0.006970340459
0.006970338899
0.006970337257
0.006970335536
0.00697033374
0.006970331871
0.006970329933
0.006970327928
0.006970325861
0.006970323735
0.006970321554
0.006970319321
0.006970317039
0.006970314714
0.006970312348
0.006970309946
0.006970307512
0.00697030505
0.006970302563
0.006970300057
0.006970297535
0.006970295001
0.00697029246
0.006970289916
0.006970287373
0.006970284834
0.006970282305
0.006970279789
0.006970277291
0.006970274813
0.006970272361
0.006970269938
0.006970267547
0.006970265193
0.006970262879
0.006982293185
0.006982293139
0.006982293036
0.006982292881
0.006982292673
0.006982292413
0.006982292102
0.006982291741
0.006982291329
0.006982290868
0.006982290358
0.006982289801
0.006982289197
0.006982288548
0.006982287854
0.006982287117
0.006982286338
0.006982285519
0.00698228466
0.006982283763
0.00698228283
0.006982281862
0.006982280862
0.00698227983
0.006982278769
0.00698227768
0.006982276565
0.006982275426
0.006982274265
0.006982273084
0.006982271885
0.00698227067
0.006982269441
0.0069822682
0.006982266949
0.00698226569
0.006982264425
0.006982263157
0.006982261887
0.006982260617
0.00698225935
0.006982258087
0.006982256832
0.006982255584
0.006982254348
0.006982253124
0.006982251914
0.006982250721
0.006982249546
0.006982248391
0.006994297841
0.006994297817
0.006994297766
0.006994297688
0.006994297585
0.006994297455
0.0069942973
0.006994297119
0.006994296914
0.006994296684
0.006994296429
0.006994296151
0.00699429585
0.006994295526
0.006994295179
0.006994294811
0.006994294422
0.006994294013
0.006994293584
0.006994293137
0.006994292671
0.006994292188
0.006994291688
0.006994291173
0.006994290644
0.0069942901
0.006994289543
0.006994288975
0.006994288395
0.006994287806
0.006994287207
0.006994286601
0.006994285987
0.006994285368
0.006994284743
0.006994284115
0.006994283483
0.00699428285
0.006994282216
0.006994281582
0.00699428095
0.006994280319
0.006994279692
0.00699427907
0.006994278452
0.006994277841
0.006994277237
0.006994276642
0.006994276055
0.006994275479
0.007006355377
0.007006355366
0.00700635534
0.007006355301
0.00700635525
0.007006355185
0.007006355107
0.007006355017
0.007006354915
0.0070063548
0.007006354673
0.007006354534
0.007006354383
0.007006354222
0.007006354049
0.007006353865
0.007006353671
0.007006353467
0.007006353253
0.007006353029
0.007006352797
0.007006352555
0.007006352306
0.007006352049
0.007006351784
0.007006351513
0.007006351235
0.007006350951
0.007006350662
0.007006350368
0.007006350069
0.007006349766
0.00700634946
0.007006349151
0.007006348839
0.007006348525
0.00700634821
0.007006347894
0.007006347577
0.007006347261
0.007006346945
0.00700634663
0.007006346317
0.007006346007
0.007006345698
0.007006345393
0.007006345092
0.007006344794
0.007006344502
0.007006344214
0.007018460317
0.007018460311
0.007018460298
0.007018460279
0.007018460253
0.007018460221
0.007018460182
0.007018460137
0.007018460086
0.007018460029
0.007018459965
0.007018459896
0.007018459821
0.00701845974
0.007018459654
0.007018459562
0.007018459465
0.007018459363
0.007018459256
0.007018459145
0.007018459029
0.007018458908
0.007018458784
0.007018458655
0.007018458523
0.007018458388
0.007018458249
0.007018458107
0.007018457963
0.007018457816
0.007018457667
0.007018457516
0.007018457363
0.007018457208
0.007018457053
0.007018456896
0.007018456739
0.007018456581
0.007018456423
0.007018456265
0.007018456107
0.00701845595
0.007018455794
0.007018455639
0.007018455485
0.007018455333
0.007018455182
0.007018455034
0.007018454887
0.007018454744
0.00703061003
0.007030610027
0.007030610021
0.007030610011
0.007030609998
0.007030609982
0.007030609963
0.00703060994
0.007030609915
0.007030609886
0.007030609854
0.00703060982
0.007030609782
0.007030609742
0.007030609699
0.007030609653
0.007030609605
0.007030609554
0.0070306095
0.007030609445
0.007030609387
0.007030609327
0.007030609264
0.0070306092
0.007030609134
0.007030609067
0.007030608998
0.007030608927
0.007030608855
0.007030608781
0.007030608707
0.007030608631
0.007030608555
0.007030608478
0.0070306084
0.007030608322
0.007030608243
0.007030608165
0.007030608086
0.007030608007
0.007030607928
0.00703060785
0.007030607772
0.007030607694
0.007030607617
0.007030607541
0.007030607466
0.007030607392
0.007030607319
0.007030607247
0.007042803317
0.007042803316
0.007042803312
0.007042803308
0.007042803301
0.007042803293
0.007042803283
0.007042803272
0.007042803259
0.007042803245
0.007042803229
0.007042803212
0.007042803193
0.007042803173
0.007042803152
0.007042803129
0.007042803105
0.007042803079
0.007042803053
0.007042803025
0.007042802996
0.007042802966
0.007042802935
0.007042802903
0.00704280287
0.007042802836
0.007042802801
0.007042802766
0.00704280273
0.007042802693
0.007042802656
0.007042802619
0.00704280258
0.007042802542
0.007042802503
0.007042802464
0.007042802425
0.007042802385
0.007042802346
0.007042802307
0.007042802267
0.007042802228
0.007042802189
0.00704280215
0.007042802112
0.007042802074
0.007042802036
0.007042801999
0.007042801963
0.007042801927
0.007055039688
0.007055039687
0.007055039685
0.007055039683
0.00705503968
0.007055039676
0.007055039671
0.007055039665
0.007055039659
0.007055039652
0.007055039644
0.007055039635
0.007055039626
0.007055039616
0.007055039605
0.007055039594
0.007055039582
0.007055039569
0.007055039556
0.007055039542
0.007055039527
0.007055039512
0.007055039497
0.007055039481
0.007055039464
0.007055039447
0.00705503943
0.007055039412
0.007055039394
0.007055039376
0.007055039358
0.007055039339
0.00705503932
0.0070550393
0.007055039281
0.007055039262
0.007055039242
0.007055039222
0.007055039203
0.007055039183
0.007055039163
0.007055039144
0.007055039124
0.007055039105
0.007055039085
0.007055039066
0.007055039048
0.007055039029
0.007055039011
0.007055038993
0.00706731901
0.00706731901
0.007067319009
0.007067319008
0.007067319006
0.007067319004
0.007067319002
0.007067318999
0.007067318996
0.007067318992
0.007067318988
0.007067318984
0.007067318979
0.007067318974
0.007067318969
0.007067318963
0.007067318957
0.007067318951
0.007067318944
0.007067318938
0.00706731893
0.007067318923
0.007067318915
0.007067318907
0.007067318899
0.007067318891
0.007067318882
0.007067318873
0.007067318864
0.007067318855
0.007067318846
0.007067318837
0.007067318827
0.007067318818
0.007067318808
0.007067318798
0.007067318788
0.007067318779
0.007067318769
0.007067318759
0.007067318749
0.00706731874
0.00706731873
0.007067318721
0.007067318711
0.007067318702
0.007067318692
0.007067318683
0.007067318674
0.007067318666
0.00707964133
0.00707964133
0.007079641329
0.007079641329
0.007079641328
0.007079641327
0.007079641326
0.007079641324
0.007079641323
0.007079641321
0.007079641319
0.007079641317
0.007079641315
0.007079641312
0.007079641309
0.007079641307
0.007079641304
0.007079641301
0.007079641297
0.007079641294
0.00707964129
0.007079641286
0.007079641283
0.007079641279
0.007079641275
0.00707964127
0.007079641266
0.007079641262
0.007079641257
0.007079641253
0.007079641248
0.007079641243
0.007079641239
0.007079641234
0.007079641229
0.007079641224
0.007079641219
0.007079641215
0.00707964121
0.007079641205
0.0070796412
0.007079641195
0.00707964119
0.007079641186
0.007079641181
0.007079641176
0.007079641171
0.007079641167
0.007079641162
0.007079641158
0.007092006784
0.007092006784
0.007092006783
0.007092006783
0.007092006783
0.007092006782
0.007092006782
0.007092006781
0.00709200678
0.007092006779
0.007092006778
0.007092006777
0.007092006776
0.007092006775
0.007092006773
0.007092006772
0.007092006771
0.007092006769
0.007092006767
0.007092006766
0.007092006764
0.007092006762
0.00709200676
0.007092006758
0.007092006756
0.007092006754
0.007092006752
0.00709200675
0.007092006747
0.007092006745
0.007092006743
0.00709200674
0.007092006738
0.007092006736
0.007092006733
0.007092006731
0.007092006728
0.007092006726
0.007092006724
0.007092006721
0.007092006719
0.007092006716
0.007092006714
0.007092006711
0.007092006709
0.007092006707
0.007092006704
0.007092006702
0.0070920067
0.007092006698
0.007104415553
0.007104415553
0.007104415553
0.007104415553
0.007104415552
0.007104415552
0.007104415552
0.007104415551
0.007104415551
0.007104415551
0.00710441555
0.00710441555
0.007104415549
0.007104415548
0.007104415548
0.007104415547
0.007104415546
0.007104415545
0.007104415545
0.007104415544
0.007104415543
0.007104415542
0.007104415541
0.00710441554
0.007104415539
0.007104415538
0.007104415537
0.007104415536
0.007104415535
0.007104415533
0.007104415532
0.007104415531
0.00710441553
0.007104415529
0.007104415528
0.007104415526
0.007104415525
0.007104415524
0.007104415523
0.007104415521
0.00710441552
0.007104415519
0.007104415518
0.007104415517
0.007104415515
0.007104415514
0.007104415513
0.007104415512
0.007104415511
0.00710441551
0.007116867844
0.007116867844
0.007116867844
0.007116867843
0.007116867843
0.007116867843
0.007116867843
0.007116867843
0.007116867843
0.007116867842
0.007116867842
0.007116867842
0.007116867842
0.007116867841
0.007116867841
0.007116867841
0.00711686784
0.00711686784
0.007116867839
0.007116867839
0.007116867839
0.007116867838
0.007116867838
0.007116867837
0.007116867837
0.007116867836
0.007116867835
0.007116867835
0.007116867834
0.007116867834
0.007116867833
0.007116867833
0.007116867832
0.007116867831
0.007116867831
0.00711686783
0.007116867829
0.007116867829
0.007116867828
0.007116867827
0.007116867827
0.007116867826
0.007116867826
0.007116867825
0.007116867824
0.007116867824
0.007116867823
0.007116867822
0.007116867822
0.007116867821
0.007129363874
0.007129363874
0.007129363874
0.007129363874
0.007129363874
0.007129363874
0.007129363874
0.007129363873
0.007129363873
0.007129363873
0.007129363873
0.007129363873
0.007129363873
0.007129363873
0.007129363873
0.007129363872
0.007129363872
0.007129363872
0.007129363872
0.007129363871
0.007129363871
0.007129363871
0.007129363871
0.007129363871
0.00712936387
0.00712936387
0.00712936387
0.007129363869
0.007129363869
0.007129363869
0.007129363868
0.007129363868
0.007129363868
0.007129363868
0.007129363867
0.007129363867
0.007129363866
0.007129363866
0.007129363866
0.007129363865
0.007129363865
0.007129363865
0.007129363864
0.007129363864
0.007129363864
0.007129363863
0.007129363863
0.007129363862
0.007129363862
0.007129363862
0.007141903869
0.007141903869
0.007141903869
0.007141903869
0.007141903869
0.007141903869
0.007141903869
0.007141903869
0.007141903869
0.007141903869
0.007141903869
0.007141903869
0.007141903869
0.007141903869
0.007141903868
0.007141903868
0.007141903868
0.007141903868
0.007141903868
0.007141903868
0.007141903868
0.007141903868
0.007141903868
0.007141903868
0.007141903868
0.007141903867
0.007141903867
0.007141903867
0.007141903867
0.007141903867
0.007141903867
0.007141903867
0.007141903867
0.007141903866
0.007141903866
0.007141903866
0.007141903866
0.007141903866
0.007141903866
0.007141903866
0.007141903866
0.007141903866
0.007141903866
0.007141903865
0.007141903865
0.007141903865
0.007141903865
0.007141903865
0.007141903865
0.007141903865
0.007154488058
0.007154488058
0.007154488058
0.007154488058
0.007154488058
0.007154488058
0.007154488058
0.007154488058
0.007154488058
0.007154488058
0.007154488058
0.007154488058
0.007154488058
0.007154488058
0.007154488058
0.007154488058
0.007154488058
0.007154488058
0.007154488058
0.007154488058
0.007154488058
0.007154488058
0.007154488058
0.007154488058
0.007154488058
0.007154488058
0.007154488058
0.007154488058
0.007154488058
0.007154488058
0.007154488057
0.007154488057
0.007154488057
0.007154488057
0.007154488057
0.007154488057
0.007154488057
0.007154488057
0.007154488057
0.007154488057
0.007154488057
0.007154488057
0.007154488057
0.007154488057
0.007154488057
0.007154488057
0.007154488057
0.007154488057
0.007154488057
0.007154488057
0.007167116675
0.007167116675
0.007167116675
0.007167116675
0.007167116675
0.007167116675
0.007167116675
0.007167116675
0.007167116675
0.007167116675
0.007167116675
0.007167116675
0.007167116675
0.007167116675
0.007167116675
0.007167116675
0.007167116675
0.007167116674
0.007167116674
0.007167116674
0.007167116674
0.007167116674
0.007167116674
0.007167116674
0.007167116674
0.007167116674
0.007167116674
0.007167116674
0.007167116674
0.007167116674
0.007167116674
0.007167116674
0.007167116674
0.007167116674
0.007167116674
0.007167116674
0.007167116674
0.007167116674
0.007167116674
0.007167116674
0.007167116674
0.007167116674
0.007167116674
0.007167116674
0.007167116674
0.007167116674
0.007167116674
0.007167116674
0.007167116674
0.007167116674
0.007179789953
0.007179789953
0.007179789953
0.007179789953
0.007179789953
0.007179789953
0.007179789953
0.007179789953
0.007179789953
0.007179789953
0.007179789953
0.007179789953
0.007179789953
0.007179789953
0.007179789953
0.007179789953
0.007179789953
0.007179789953
0.007179789953
0.007179789953
0.007179789953
0.007179789953
0.007179789953
0.007179789953
0.007179789952
0.007179789952
0.007179789952
0.007179789952
0.007179789952
0.007179789952
0.007179789952
0.007179789952
0.007179789952
0.007179789952
0.007179789952
0.007179789952
0.007179789952
0.007179789952
0.007179789952
0.007179789952
0.007179789952
0.007179789952
0.007179789952
0.007179789952
0.007179789952
0.007179789952
0.007179789952
0.007179789952
0.007179789952
0.007179789952
0.00719250813
0.00719250813
0.00719250813
0.00719250813
0.00719250813
0.00719250813
0.00719250813
0.00719250813
0.00719250813
0.00719250813
0.00719250813
0.00719250813
0.00719250813
0.00719250813
0.00719250813
0.00719250813
0.00719250813
0.00719250813
0.00719250813
0.00719250813
0.00719250813
0.00719250813
0.00719250813
0.00719250813
0.00719250813
0.00719250813
0.00719250813
0.00719250813
0.00719250813
0.00719250813
0.007192508129
0.007192508129
0.007192508129
0.007192508129
0.007192508129
0.007192508129
0.007192508129
0.007192508129
0.007192508129
0.007192508129
0.007192508129
0.007192508129
0.007192508129
0.007192508129
0.007192508129
0.007192508129
0.007192508129
0.007192508129
0.007192508129
0.007192508129
0.007205271445
0.007205271445
0.007205271445
0.007205271445
0.007205271445
0.007205271445
0.007205271445
0.007205271445
0.007205271445
0.007205271445
0.007205271445
0.007205271445
0.007205271445
0.007205271445
0.007205271445
0.007205271445
0.007205271445
0.007205271445
0.007205271445
0.007205271445
0.007205271445
0.007205271445
0.007205271445
0.007205271445
0.007205271445
0.007205271445
0.007205271445
0.007205271445
0.007205271445
0.007205271444
0.007205271444
0.007205271444
0.007205271444
0.007205271444
0.007205271444
0.007205271444
0.007205271444
0.007205271444
0.007205271444
0.007205271444
0.007205271444
0.007205271444
0.007205271444
0.007205271444
0.007205271444
0.007205271444
0.007205271444
0.007205271444
0.007205271444
0.007205271444
0.007218080139
0.007218080139
0.007218080139
0.007218080139
0.007218080139
0.007218080139
0.007218080139
0.007218080139
0.007218080139
0.007218080139
0.007218080139
0.007218080139
0.007218080139
0.007218080139
0.007218080139
0.007218080139
0.007218080139
0.007218080139
0.007218080139
0.007218080139
0.007218080139
0.007218080139
0.007218080138
0.007218080138
0.007218080138
0.007218080138
0.007218080138
0.007218080138
0.007218080138
0.007218080138
0.007218080138
0.007218080138
0.007218080138
0.007218080138
0.007218080138
0.007218080138
0.007218080138
0.007218080138
0.007218080138
0.007218080138
0.007218080138
0.007218080138
0.007218080138
0.007218080138
0.007218080138
0.007218080137
0.007218080137
0.007218080137
0.007218080137
0.007218080137
0.007230934453
0.007230934453
0.007230934453
0.007230934453
0.007230934453
0.007230934453
0.007230934453
0.007230934453
0.007230934453
0.007230934453
0.007230934453
0.007230934453
0.007230934454
0.007230934454
0.007230934454
0.007230934454
0.007230934454
0.007230934454
0.007230934454
0.007230934454
0.007230934454
0.007230934454
0.007230934454
0.007230934454
0.007230934454
0.007230934454
0.007230934454
0.007230934454
0.007230934454
0.007230934454
0.007230934454
0.007230934454
0.007230934454
0.007230934454
0.007230934454
0.007230934454
0.007230934454
0.007230934454
0.007230934454
0.007230934454
0.007230934454
0.007230934454
0.007230934454
0.007230934454
0.007230934454
0.007230934455
0.007230934455
0.007230934455
0.007230934455
0.007230934455
0.007243834633
0.007243834633
0.007243834633
0.007243834633
0.007243834633
0.007243834633
0.007243834633
0.007243834633
0.007243834633
0.007243834633
0.007243834633
0.007243834633
0.007243834633
0.007243834633
0.007243834633
0.007243834633
0.007243834633
0.007243834633
0.007243834633
0.007243834633
0.007243834633
0.007243834633
0.007243834633
0.007243834633
0.007243834633
0.007243834633
0.007243834633
0.007243834633
0.007243834633
0.007243834633
0.007243834633
0.007243834634
0.007243834634
0.007243834634
0.007243834634
0.007243834634
0.007243834634
0.007243834634
0.007243834634
0.007243834634
0.007243834634
0.007243834634
0.007243834634
0.007243834634
0.007243834634
0.007243834634
0.007243834634
0.007243834634
0.007243834634
0.007243834634
0.007256780924
0.007256780924
0.007256780924
0.007256780924
0.007256780924
0.007256780924
0.007256780924
0.007256780924
0.007256780924
0.007256780924