/*--------------------------------*- C++ -*----------------------------------*\
| =========                 |                                                 |
| \\      /  F ield         | OpenFOAM: The Open Source CFD Toolbox           |
|  \\    /   O peration     | Version:  5.x                                   |
|   \\  /    A nd           | Web:      www.OpenFOAM.org                      |
|    \\/     M anipulation  |                                                 |
\*---------------------------------------------------------------------------*/
FoamFile
{
    version     2.0;
    format      ascii;
    class       volVectorField;
    location    "0.06";
    object      Uair;
}
// * * * * * * * * * * * * * * * * * * * * * * * * * * * * * * * * * * * * * //

dimensions      [0 1 -1 0 0 0 0];

internalField   nonuniform List<vector> 
7950
(
(0.2815010723 -0.001858131297 4.699246551e-09)
(0.2815806246 -0.004457767846 1.187285149e-08)
(0.2817764033 -0.007309170406 1.181340731e-08)
(0.2820877078 -0.0102110823 7.264975702e-09)
(0.2825137831 -0.01313804084 4.991811527e-09)
(0.2830547164 -0.01608511381 3.767420443e-09)
(0.2837114352 -0.01905346302 3.182299607e-09)
(0.2844854828 -0.02204578784 3.058639725e-09)
(0.2853788762 -0.0250654308 3.060938137e-09)
(0.2863941082 -0.02811619387 4.004930096e-09)
(0.2875340366 -0.03120212051 2.77543528e-09)
(0.2888017717 -0.03432745082 2.53347497e-09)
(0.2902005607 -0.03749661174 2.849564349e-09)
(0.2917336511 -0.04071420565 2.038200287e-09)
(0.2934041382 -0.04398499056 1.972327843e-09)
(0.2952147703 -0.04731384882 1.537098253e-09)
(0.2971677228 -0.05070575109 1.310984939e-09)
(0.2992643171 -0.0541656923 1.644738573e-09)
(0.3015046891 -0.05769861385 9.263612778e-10)
(0.3038873916 -0.06130929815 8.21922328e-10)
(0.30640892 -0.06500222254 7.708325514e-10)
(0.3090631427 -0.06878138107 8.295619268e-10)
(0.3118406644 -0.07265004425 9.535336257e-10)
(0.3147280912 -0.07661047884 1.110626587e-09)
(0.3177071377 -0.08066356678 1.277024664e-09)
(0.3207536192 -0.08480836682 1.435460605e-09)
(0.3238363409 -0.0890415508 1.573638212e-09)
(0.3269158247 -0.09335669878 1.681860006e-09)
(0.3299428766 -0.0977433732 1.760241388e-09)
(0.332856934 -0.1021862073 1.808495603e-09)
(0.3355842685 -0.1066641697 1.82680271e-09)
(0.3380362565 -0.1111480945 1.814758471e-09)
(0.340107025 -0.1155954845 1.77512943e-09)
(0.3416707159 -0.1199541253 1.711480671e-09)
(0.3425791567 -0.1241984 1.62893486e-09)
(0.3426584792 -0.1281977898 1.533081062e-09)
(0.3417738903 -0.1317659926 1.427340439e-09)
(0.3395589101 -0.1350261507 1.301192047e-09)
(0.3358020475 -0.1375860076 1.1665833e-09)
(0.3301811709 -0.1393316518 1.029853774e-09)
(0.322324049 -0.1400259396 8.93834471e-10)
(0.3117967113 -0.1393710551 7.604289011e-10)
(0.2980885358 -0.1370105353 6.327293089e-10)
(0.2805918673 -0.1325094189 5.132964476e-10)
(0.2585738868 -0.1253340526 4.038293416e-10)
(0.2311374749 -0.1148396897 3.05710805e-10)
(0.1971667068 -0.1002700526 2.192412885e-10)
(0.1552499146 -0.08065491175 1.445641127e-10)
(0.103560746 -0.05438520294 8.076574263e-11)
(0.03989424227 -0.01964402927 2.557016267e-11)
(0.5787376638 -0.0003140244807 1.242522274e-08)
(0.5789308806 -0.0006318216163 1.362092775e-08)
(0.5793567219 -0.0008685574543 1.004709696e-08)
(0.5800049021 -0.001101881935 9.575528254e-09)
(0.5808735929 -0.001346753924 9.76873939e-09)
(0.5819619308 -0.001601050708 1.495261272e-08)
(0.5832694321 -0.001864333653 1.570130512e-08)
(0.5847957788 -0.002137630733 2.022538452e-08)
(0.5865405541 -0.002421633657 2.496546081e-08)
(0.5885029978 -0.002716637031 2.815838629e-08)
(0.5906817607 -0.003023081829 2.882535054e-08)
(0.5930746329 -0.003341503393 2.883499315e-08)
(0.5956782119 -0.003672409433 2.904550774e-08)
(0.5984875339 -0.00401621533 2.817122454e-08)
(0.6014955957 -0.004373188067 2.650920425e-08)
(0.6046928381 -0.00474341715 2.314175093e-08)
(0.6080665483 -0.005126760762 2.089273108e-08)
(0.61160015 -0.005522796754 1.830837977e-08)
(0.6152723861 -0.005930765165 1.419110933e-08)
(0.6190564044 -0.006349559341 1.084553373e-08)
(0.6229186855 -0.006777858663 8.037111262e-09)
(0.6268177923 -0.007213865111 5.667860091e-09)
(0.6307030897 -0.007654750034 3.662983504e-09)
(0.6345135297 -0.008097163035 1.950735336e-09)
(0.6381758954 -0.008537848051 4.63709732e-10)
(0.6416029761 -0.008973042876 -8.721417689e-10)
(0.6446918222 -0.009398201786 -2.111661841e-09)
(0.6473218494 -0.009808304824 -2.655527719e-09)
(0.64935284 -0.01019845877 -3.194581553e-09)
(0.6506204116 -0.01056305651 -3.742975233e-09)
(0.6509428831 -0.01089580154 -4.221691602e-09)
(0.6501094845 -0.01119156875 -4.878563424e-09)
(0.6478807365 -0.01144242962 -4.826789259e-09)
(0.6439886006 -0.01164072962 -4.9932468e-09)
(0.6381335771 -0.01177879199 -5.160585294e-09)
(0.6299854565 -0.01184568463 -5.393924568e-09)
(0.6191818928 -0.01181973746 -5.738401878e-09)
(0.6053206091 -0.01170582737 -5.598996355e-09)
(0.5880709195 -0.01143861487 -5.279263884e-09)
(0.56709254 -0.01104297422 -5.071762869e-09)
(0.5419994261 -0.01050417997 -4.878259803e-09)
(0.5123605639 -0.009810767346 -4.617814027e-09)
(0.4777025518 -0.00895897266 -4.45187447e-09)
(0.4375125542 -0.007950946681 -3.856922658e-09)
(0.3912421464 -0.006796785845 -3.493053165e-09)
(0.3383126808 -0.005517902677 -3.180520597e-09)
(0.2781234035 -0.004145877529 -2.548543264e-09)
(0.2100633166 -0.00271997215 -1.863061923e-09)
(0.1335197996 -0.001346373322 -1.164576084e-09)
(0.0478784468 -0.0003488162141 -3.77190329e-10)
(0.7167515173 -0.0007030106903 1.363220853e-08)
(0.7168832833 -0.001731692291 1.863966744e-08)
(0.7171702117 -0.002958806919 1.847716621e-08)
(0.7176028353 -0.004210961544 1.834075779e-08)
(0.7181774052 -0.005464703415 1.797907491e-08)
(0.7188899047 -0.006719535583 1.829309236e-08)
(0.7197353391 -0.007975164448 1.893962666e-08)
(0.720707395 -0.009230469761 1.973513974e-08)
(0.7217981889 -0.01048485341 2.052742036e-08)
(0.7229979359 -0.01173783431 2.1200682e-08)
(0.7242945974 -0.01298827393 2.165976505e-08)
(0.7256734948 -0.01423428079 2.189202566e-08)
(0.7271168235 -0.01547313663 2.190353405e-08)
(0.728603038 -0.01670161242 2.167402011e-08)
(0.7301066234 -0.01791586846 2.123331201e-08)
(0.7315975113 -0.0191109672 2.062363419e-08)
(0.7330401197 -0.02028088037 1.990605474e-08)
(0.7343928211 -0.02141870927 1.913270674e-08)
(0.7356072748 -0.02251640638 1.837161649e-08)
(0.7366277061 -0.02356497286 1.770969032e-08)
(0.7373901799 -0.02455582317 1.62567995e-08)
(0.7378189408 -0.0254728263 1.50364885e-08)
(0.7378373726 -0.02630628976 1.315272227e-08)
(0.7373503528 -0.0270477513 1.156444467e-08)
(0.7362546381 -0.0276766925 1.015080932e-08)
(0.7344360648 -0.0281792594 8.529510862e-09)
(0.7317689737 -0.02853912703 7.096158246e-09)
(0.7281164426 -0.02873929458 5.95855089e-09)
(0.7233331697 -0.02876215697 5.038462443e-09)
(0.717266374 -0.02859149846 4.351884322e-09)
(0.7097547994 -0.02821348199 3.243051501e-09)
(0.7006171313 -0.02761665292 2.378664823e-09)
(0.6896027739 -0.02679287471 1.721750253e-09)
(0.6764530116 -0.02573919485 1.245817962e-09)
(0.6609020421 -0.02445950919 9.260619243e-10)
(0.6426797258 -0.02296727622 1.957746553e-10)
(0.6215156055 -0.02128287776 -3.948905287e-10)
(0.5971443692 -0.0194077263 -8.69355214e-10)
(0.569401154 -0.01742805672 -1.187598424e-09)
(0.5381685654 -0.0153470936 -1.385552143e-09)
(0.503349263 -0.01320469981 -1.483792888e-09)
(0.464875355 -0.0110431385 -1.496470909e-09)
(0.4227182866 -0.008906673871 -1.440653463e-09)
(0.3768979423 -0.006845799513 -1.331202335e-09)
(0.3274901123 -0.004918634677 -1.179654616e-09)
(0.2746311053 -0.003190777304 -9.972677796e-10)
(0.2185178424 -0.001736258459 -7.905790784e-10)
(0.1594013193 -0.000646836527 -5.697375299e-10)
(0.09757128499 -3.517797905e-05 -3.4126937e-10)
(0.03333179317 6.759916146e-05 -1.127959014e-10)
(0.9075686832 -0.001026429624 1.207022694e-09)
(0.9076439839 -0.002314885725 2.685099712e-09)
(0.9078124712 -0.003650352769 4.080167564e-09)
(0.9080656568 -0.004995630481 5.285383258e-09)
(0.9083950471 -0.00634969673 6.353536809e-09)
(0.9087897732 -0.007706570565 7.323021707e-09)
(0.9092361904 -0.00906320841 8.2219829e-09)
(0.9097175483 -0.01041777259 9.035001067e-09)
(0.9102137119 -0.01176776735 9.755865431e-09)
(0.9107008944 -0.01311003019 1.038562403e-08)
(0.9111512907 -0.01444099198 1.091783637e-08)
(0.9115326999 -0.01575718393 1.134918785e-08)
(0.9118080883 -0.01705661488 1.167443943e-08)
(0.9119345423 -0.01832721308 1.189971183e-08)
(0.9118654679 -0.0195727974 1.202181812e-08)
(0.9115460493 -0.02078005389 1.203899354e-08)
(0.9109154908 -0.02194428508 1.195287599e-08)
(0.909905855 -0.02305781026 1.176688704e-08)
(0.9084415773 -0.02411177452 1.14892057e-08)
(0.9064390125 -0.02509670956 1.11164162e-08)
(0.9038060239 -0.02600273894 1.06462308e-08)
(0.9004416879 -0.02681926695 1.00942139e-08)
(0.896235971 -0.02753415137 9.47021993e-09)
(0.8910692411 -0.0281342758 8.798400923e-09)
(0.8848123064 -0.02860727473 8.100271493e-09)
(0.8773265639 -0.02894438429 7.385972099e-09)
(0.8684642587 -0.02913586872 6.679084962e-09)
(0.8580684919 -0.02912951144 5.991699039e-09)
(0.846000647 -0.02897762323 5.322245198e-09)
(0.8321428168 -0.02863172859 4.677089935e-09)
(0.8163666113 -0.02808669197 4.057589139e-09)
(0.7985476529 -0.02734021485 3.473097079e-09)
(0.7786186073 -0.0263907629 2.928781174e-09)
(0.756515172 -0.02524206838 2.426489478e-09)
(0.7321821176 -0.02390387881 1.965478103e-09)
(0.7055781562 -0.02239199144 1.542692992e-09)
(0.6766796523 -0.0207286872 1.166818231e-09)
(0.6454825087 -0.01894162599 8.460445124e-10)
(0.6118124056 -0.01706300896 5.823461027e-10)
(0.5754669519 -0.01512567798 3.727267408e-10)
(0.5362765448 -0.01316417869 2.12351414e-10)
(0.4940985126 -0.01121401893 9.536061896e-11)
(0.4488115845 -0.009311141176 1.532728026e-11)
(0.4003107979 -0.007491379554 -3.427229532e-11)
(0.348502591 -0.005789884647 -5.981166896e-11)
(0.2933001581 -0.004240108521 -6.721429087e-11)
(0.2346194115 -0.002869739345 -6.178977738e-11)
(0.1723762388 -0.001696292028 -4.813158404e-11)
(0.1064861733 -0.0007565452784 -2.995998692e-11)
(0.03687100176 -0.0001764448436 -1.003144468e-11)
(0.9532023252 -0.0008479846478 2.274657419e-09)
(0.9532050463 -0.002038058708 5.221571921e-09)
(0.9532061324 -0.003409692684 8.296866345e-09)
(0.9531986491 -0.004795350467 1.1266358e-08)
(0.9531725462 -0.006168634727 1.425725305e-08)
(0.95311408 -0.007523912462 1.738042701e-08)
(0.953005705 -0.008855972258 1.777548473e-08)
(0.9528259346 -0.01015921908 1.868040457e-08)
(0.9525491537 -0.01142837249 1.967424109e-08)
(0.9521453807 -0.01265817665 2.142441898e-08)
(0.9515800141 -0.01384298924 2.095328203e-08)
(0.950813563 -0.0149766789 2.129119347e-08)
(0.9498013994 -0.01605256204 2.163432071e-08)
(0.9484935762 -0.01706378248 2.061063494e-08)
(0.9468342951 -0.01800350762 2.016960905e-08)
(0.9447615522 -0.01886416746 1.875243403e-08)
(0.9422072077 -0.0196379177 1.788356648e-08)
(0.9390966323 -0.0203169824 1.712779341e-08)
(0.9353485001 -0.02089364725 1.55565954e-08)
(0.9308746777 -0.02136040258 1.417959073e-08)
(0.9255802073 -0.0217101332 1.296726713e-08)
(0.9193633698 -0.02193634916 1.186853522e-08)
(0.9121157187 -0.02203354007 1.085817474e-08)
(0.9037225365 -0.02199774349 9.919372869e-09)
(0.8940651399 -0.02182601299 9.039862416e-09)
(0.8830216546 -0.02151433074 8.211110807e-09)
(0.8704663816 -0.02106276704 7.427844991e-09)
(0.8562707287 -0.02051694424 6.685106105e-09)
(0.8403388802 -0.01982390707 5.990527503e-09)
(0.8225961329 -0.01903280942 5.340906758e-09)
(0.8029682944 -0.01815150533 4.73542212e-09)
(0.7813845512 -0.0171881453 4.173041546e-09)
(0.7577797116 -0.01615418446 3.652316702e-09)
(0.7320947115 -0.01506062342 3.17130224e-09)
(0.7042772872 -0.01391756333 2.730487166e-09)
(0.6742825571 -0.01273434079 2.330295944e-09)
(0.6420734013 -0.01151900513 1.97148184e-09)
(0.6076205953 -0.01027796761 1.65277462e-09)
(0.5709025817 -0.009019022924 1.373204221e-09)
(0.5319101793 -0.007754945569 1.129820145e-09)
(0.4906516095 -0.006503480325 9.199808701e-10)
(0.4471559721 -0.005286021532 7.413261924e-10)
(0.4014754197 -0.004126626381 5.902418065e-10)
(0.3536861209 -0.003051343736 4.637388947e-10)
(0.3038879801 -0.002087560655 3.575859431e-10)
(0.2522029656 -0.001263242912 2.684477311e-10)
(0.1987718011 -0.0006071317354 1.938781135e-10)
(0.1437485985 -0.000152923467 1.301261199e-10)
(0.08729313177 6.26873126e-05 7.483898099e-11)
(0.02956136196 5.296991075e-05 2.428560336e-11)
(1.060694133 -0.001043896748 -6.032858669e-09)
(1.060549016 -0.002382363889 -1.439905621e-08)
(1.060229327 -0.003800215726 -1.443875744e-08)
(1.05973472 -0.005219374996 -1.173450234e-08)
(1.059052694 -0.006628608104 -3.040768981e-09)
(1.05816528 -0.008017861079 2.196809826e-09)
(1.05704963 -0.00937972789 6.044615012e-09)
(1.05567811 -0.01070778786 8.950725084e-09)
(1.054018331 -0.01199541503 1.114132779e-08)
(1.052033171 -0.01323585556 1.27641854e-08)
(1.049680808 -0.01442236465 1.392070093e-08)
(1.046914768 -0.01554817412 1.469373053e-08)
(1.043684012 -0.01660646178 1.514835587e-08)
(1.039933078 -0.01759036719 1.532056995e-08)
(1.035602279 -0.01849303432 1.526353839e-08)
(1.030628032 -0.01930766968 1.502691544e-08)
(1.024943207 -0.02002764199 1.465925728e-08)
(1.01847763 -0.02064657817 1.419279953e-08)
(1.011158682 -0.02115843748 1.364837687e-08)
(1.002912033 -0.02155748047 1.306100857e-08)
(0.9936624872 -0.02183888044 1.24057495e-08)
(0.9833350243 -0.02200111458 1.198270739e-08)
(0.9718560705 -0.02204320685 1.0799977e-08)
(0.9591546345 -0.02193665577 9.896303225e-09)
(0.9451697806 -0.02172542128 8.9209067e-09)
(0.9298715795 -0.02138428451 8.173075275e-09)
(0.9132360785 -0.02091976624 7.539194828e-09)
(0.8952484559 -0.02034153727 7.129148269e-09)
(0.8758420378 -0.01965733266 6.386544976e-09)
(0.8549098191 -0.01887602004 5.703914521e-09)
(0.8323595705 -0.01800682703 4.824873498e-09)
(0.8081114226 -0.01705951134 4.54039578e-09)
(0.7820964336 -0.01604431808 4.1258139e-09)
(0.7542552586 -0.01497190977 3.184136377e-09)
(0.7245369845 -0.01385338269 2.25312558e-09)
(0.6928980917 -0.01270028504 1.277338613e-09)
(0.6593014539 -0.01152461308 7.489290506e-10)
(0.6237153 -0.01033884842 9.735551629e-11)
(0.5861121453 -0.009156026085 -1.658448097e-10)
(0.5464678668 -0.007989752497 -5.427473869e-10)
(0.5047606589 -0.006854025983 -1.060384334e-09)
(0.460969676 -0.005762933825 -1.194624466e-09)
(0.415073397 -0.004730248725 -1.468016262e-09)
(0.3670478147 -0.003769017741 -1.383652132e-09)
(0.316864633 -0.002891255104 -1.391118482e-09)
(0.2644897171 -0.002107549479 -1.474377567e-09)
(0.20988211 -0.001425192936 -1.236345054e-09)
(0.1529940154 -0.0008459840493 -1.030888548e-09)
(0.09377222035 -0.0003812938206 -6.072673475e-10)
(0.032162739 -9.029049699e-05 -1.888341623e-10)
(1.086840641 -0.0007764705848 4.719335386e-09)
(1.08660739 -0.001839367007 -3.170734866e-09)
(1.086088793 -0.003037112466 -7.317983997e-09)
(1.085288986 -0.004237659229 -1.198063085e-08)
(1.084196588 -0.005419441153 -9.903511348e-09)
(1.082794144 -0.006574338931 -1.050285929e-08)
(1.081059177 -0.007695327114 -7.152848032e-09)
(1.078964509 -0.008775728205 -5.088496387e-09)
(1.076478415 -0.009809497229 -1.526717331e-09)
(1.073564738 -0.01079089407 1.747639438e-09)
(1.070183016 -0.01171430754 4.42025702e-09)
(1.066288632 -0.01257432527 7.535341859e-09)
(1.061832989 -0.01336580625 8.579624422e-09)
(1.056763722 -0.01408394384 1.017751914e-08)
(1.051024946 -0.01472434033 1.161338441e-08)
(1.044557553 -0.01528308314 1.320964917e-08)
(1.037299535 -0.01575681432 1.365740687e-08)
(1.029186347 -0.01614280131 1.432583175e-08)
(1.020151306 -0.01643907701 1.498781438e-08)
(1.010125982 -0.01664467277 1.464277603e-08)
(0.9990405784 -0.01675923536 1.522085385e-08)
(0.9868242175 -0.01678084 1.511270487e-08)
(0.9734054673 -0.01670873579 1.52084291e-08)
(0.9587134419 -0.01657173021 1.479033552e-08)
(0.9426876363 -0.01633093146 1.391501637e-08)
(0.9252887479 -0.01601609909 1.394708361e-08)
(0.9064755182 -0.0156275955 1.358376242e-08)
(0.8862048935 -0.01516401867 1.270050266e-08)
(0.8644314297 -0.01462582784 1.209796732e-08)
(0.8411085776 -0.01401517227 1.137694631e-08)
(0.8161913401 -0.01333609865 1.141379502e-08)
(0.7896382072 -0.01259423667 1.128103535e-08)
(0.7614125963 -0.01179648267 1.068959324e-08)
(0.7314839253 -0.01095078896 1.060732905e-08)
(0.6998284505 -0.01006601286 1.004858773e-08)
(0.6664299437 -0.009151793027 1.035803181e-08)
(0.6312802539 -0.008218451679 1.030262051e-08)
(0.5943797996 -0.007276919719 1.031604685e-08)
(0.5557379994 -0.006338686067 1.016530156e-08)
(0.5153736532 -0.005415736949 9.900939222e-09)
(0.4733152522 -0.004520521743 9.618663931e-09)
(0.4296011773 -0.003665905512 9.060921331e-09)
(0.3842797438 -0.002865150252 8.613679059e-09)
(0.3374090148 -0.002131925885 7.945628901e-09)
(0.2890562898 -0.001480299256 7.333528191e-09)
(0.2392971385 -0.0009245912011 6.250587383e-09)
(0.1882138053 -0.0004796326863 5.252000814e-09)
(0.1358927366 -0.00016326361 4.095057817e-09)
(0.08242102648 3.305975433e-06 2.520070327e-09)
(0.0278820659 2.305586974e-05 9.6984854e-10)
(1.147372197 -0.0007679309222 1.278218876e-08)
(1.146980384 -0.001762617971 1.394392437e-08)
(1.14611633 -0.002825668572 9.845385975e-09)
(1.144794147 -0.003885517658 9.287827895e-09)
(1.143004831 -0.004930112106 9.77309278e-09)
(1.140732925 -0.005950498488 1.489936347e-08)
(1.137958322 -0.006939716952 1.802358853e-08)
(1.134656815 -0.007891604123 2.236736398e-08)
(1.13080045 -0.008800177305 2.782967868e-08)
(1.126357817 -0.009659754061 3.187316717e-08)
(1.121294355 -0.01046502367 3.27860814e-08)
(1.115572676 -0.0112110332 3.329098707e-08)
(1.109152918 -0.01189319533 3.403602736e-08)
(1.101993136 -0.0125073322 3.377137546e-08)
(1.094049739 -0.01304970503 3.388072408e-08)
(1.085277955 -0.01351707853 3.176450466e-08)
(1.075632349 -0.01390675399 3.040845974e-08)
(1.065067369 -0.01421659501 2.860488169e-08)
(1.053537945 -0.01444495979 2.629314383e-08)
(1.041000136 -0.01459102067 2.389530862e-08)
(1.027411849 -0.01465618282 2.19697802e-08)
(1.012733691 -0.01464226285 2.03221475e-08)
(0.9969295906 -0.01453385213 1.890855447e-08)
(0.9799795148 -0.01436190949 1.768744039e-08)
(0.9618611548 -0.01411112925 1.662194259e-08)
(0.9425094437 -0.01378790921 1.569549225e-08)
(0.9218674175 -0.01339724721 1.486046363e-08)
(0.8998844837 -0.01294297898 1.409686947e-08)
(0.8765155461 -0.01242934235 1.339311585e-08)
(0.8517205217 -0.01186121131 1.274854188e-08)
(0.8254641613 -0.01124407841 1.215793232e-08)
(0.7977159902 -0.01058405427 1.160020667e-08)
(0.7684502772 -0.009887851628 1.107342429e-08)
(0.7376459572 -0.009162733043 1.056808011e-08)
(0.7052864788 -0.008416435144 1.007852724e-08)
(0.6713595281 -0.007657080745 9.601992713e-09)
(0.6358566297 -0.006893064444 9.124253905e-09)
(0.598772596 -0.006132948066 8.63022003e-09)
(0.5601048285 -0.005385315171 8.112221203e-09)
(0.5198524748 -0.004658644933 7.561299595e-09)
(0.4780154565 -0.003961153445 6.971823756e-09)
(0.4345933942 -0.003300640564 6.347010619e-09)
(0.3895844825 -0.002684319908 5.683897636e-09)
(0.3429843773 -0.002118653894 4.987637277e-09)
(0.2947851929 -0.001609271117 4.259037976e-09)
(0.2449747157 -0.001160823116 3.50555386e-09)
(0.1935359785 -0.0007760618585 2.732213442e-09)
(0.140447371 -0.0004547828293 1.947614578e-09)
(0.08568350513 -0.0002018589405 1.163116894e-09)
(0.02921771387 -4.696693898e-05 3.842934038e-10)
(1.163665268 -0.0005595516347 1.88883156e-10)
(1.163202101 -0.001317468074 3.006420595e-10)
(1.16217914 -0.002162677773 8.776794522e-10)
(1.160615234 -0.003007256699 1.635389493e-09)
(1.158503503 -0.003836296537 4.730973682e-09)
(1.155830542 -0.004643252307 7.709076006e-09)
(1.152578545 -0.005422564075 1.081793067e-08)
(1.148725956 -0.006169206044 1.372334844e-08)
(1.144247841 -0.006878725941 1.650094264e-08)
(1.139116151 -0.007546974834 1.902906429e-08)
(1.133300014 -0.008170076172 1.955594841e-08)
(1.126765998 -0.008744479142 2.11476366e-08)
(1.1194784 -0.009266981948 2.308078733e-08)
(1.111399541 -0.009734765673 2.295267103e-08)
(1.102490058 -0.01014541394 2.308859908e-08)
(1.092709193 -0.01049693085 2.273042574e-08)
(1.082015063 -0.01078775179 2.212216271e-08)
(1.070364903 -0.01101679465 2.24667174e-08)
(1.057715261 -0.01118357951 2.160350401e-08)
(1.044022094 -0.01128793401 2.077878153e-08)
(1.029240746 -0.01132846875 1.999680161e-08)
(1.013325971 -0.01130428375 1.923270899e-08)
(0.9962322751 -0.01123417577 1.846182028e-08)
(0.9779267614 -0.01109154083 1.767294473e-08)
(0.9583828771 -0.01089386898 1.6884398e-08)
(0.9375717876 -0.01064098587 1.610501543e-08)
(0.9154642589 -0.01033344677 1.534389837e-08)
(0.8920318863 -0.009974033301 1.460393696e-08)
(0.8672480473 -0.009566321062 1.388828139e-08)
(0.84108864 -0.009114343973 1.31942931e-08)
(0.8135326404 -0.008622652649 1.251703698e-08)
(0.7845625362 -0.008096272195 1.185494306e-08)
(0.7541646718 -0.007540646979 1.120466005e-08)
(0.7223295074 -0.006961577401 1.056407866e-08)
(0.6890518161 -0.006365176526 9.928251103e-09)
(0.6543308167 -0.005757808481 9.291899623e-09)
(0.6181702689 -0.005146045691 8.653368562e-09)
(0.5805785198 -0.004536619984 8.009908995e-09)
(0.5415685275 -0.003936378221 7.361576417e-09)
(0.5011578554 -0.003352257144 6.708567006e-09)
(0.4593686336 -0.00279125882 6.052386562e-09)
(0.4162274883 -0.002260441027 5.393323157e-09)
(0.3717654158 -0.001766928799 4.73393293e-09)
(0.3260175688 -0.001317950864 4.076783517e-09)
(0.2790229178 -0.0009208582044 3.423833179e-09)
(0.2308237201 -0.000583082075 2.777264606e-09)
(0.18146471 -0.0003122457274 2.138649054e-09)
(0.1309918948 -0.0001175029827 1.511278809e-09)
(0.07945085638 -1.022553224e-05 8.964868387e-10)
(0.02688472208 9.929946629e-06 2.954337286e-10)
(1.198360378 -0.0005064282557 1.121717556e-08)
(1.197777547 -0.001166031789 9.098557182e-09)
(1.196493474 -0.001874276193 1.107301719e-08)
(1.194535597 -0.002579228451 1.415141072e-08)
(1.191900552 -0.00327174204 1.786637362e-08)
(1.18857862 -0.003945504508 2.201879641e-08)
(1.184556328 -0.004595539482 2.359162982e-08)
(1.17981721 -0.005217410729 2.569886067e-08)
(1.174342216 -0.005806933899 2.83562212e-08)
(1.168110014 -0.006360266918 3.04066342e-08)
(1.16109726 -0.006873917441 3.287414064e-08)
(1.153278883 -0.007344724385 3.473370806e-08)
(1.144628375 -0.007769876331 3.679400149e-08)
(1.135118105 -0.008146919155 3.781781622e-08)
(1.124719649 -0.00847377876 3.685577739e-08)
(1.113404148 -0.008748782691 3.548541929e-08)
(1.101142696 -0.008970644535 3.459295432e-08)
(1.087906765 -0.009138413228 3.382493346e-08)
(1.073668671 -0.009251667674 3.282095214e-08)
(1.058402133 -0.009311485825 3.214091646e-08)
(1.042082942 -0.009319298656 3.000409552e-08)
(1.024689554 -0.009264794123 2.841181884e-08)
(1.006211619 -0.009168536795 2.65574936e-08)
(0.9866233633 -0.009020523762 2.529013508e-08)
(0.9658848325 -0.008825049729 2.416290927e-08)
(0.9439612327 -0.008585471335 2.273269089e-08)
(0.9208220625 -0.008304582721 2.137930705e-08)
(0.8964407566 -0.007985531574 1.993735139e-08)
(0.8707944495 -0.007631879536 1.900311985e-08)
(0.8438638329 -0.007247537002 1.858129308e-08)
(0.815633002 -0.006836755484 1.717589058e-08)
(0.7860890388 -0.006403986161 1.61036692e-08)
(0.7552219323 -0.005953792952 1.475180191e-08)
(0.7230247534 -0.005490845896 1.404994704e-08)
(0.6894934514 -0.005019915145 1.353133223e-08)
(0.6546265405 -0.004545844539 1.222231659e-08)
(0.6184247407 -0.004073512827 1.110797213e-08)
(0.5808905521 -0.003607783569 9.660283283e-09)
(0.5420277683 -0.003153455219 8.299269673e-09)
(0.5018409218 -0.002715203235 7.035659843e-09)
(0.4603346863 -0.002297507837 6.243934026e-09)
(0.4175132447 -0.001904593663 4.905199209e-09)
(0.3733796573 -0.001540352618 4.194441989e-09)
(0.3279352809 -0.001208245701 3.403369578e-09)
(0.2811792312 -0.0009112261466 2.615708134e-09)
(0.233107959 -0.0006516943875 2.215395194e-09)
(0.183715048 -0.0004310196914 1.307133881e-09)
(0.1329912906 -0.0002490400752 7.773133949e-10)
(0.08092513335 -0.0001084253155 2.375203657e-10)
(0.02750394997 -2.46239399e-05 8.017377026e-11)
(1.208037522 -0.0003629032791 2.537521782e-09)
(1.20740665 -0.0008519552664 5.793557761e-09)
(1.206016165 -0.001394494626 9.317108966e-09)
(1.203896912 -0.001935822947 1.288418864e-08)
(1.201047169 -0.002466478955 1.642465873e-08)
(1.197458884 -0.00298198303 1.871570017e-08)
(1.193120482 -0.003478577735 2.00937317e-08)
(1.188017672 -0.003952912799 2.045137168e-08)
(1.182133835 -0.004402004602 2.072580468e-08)
(1.175450299 -0.004823100395 2.076525046e-08)
(1.167946576 -0.005213671653 2.047779115e-08)
(1.159600592 -0.005571442128 2.16291194e-08)
(1.150388915 -0.005894403877 2.220986466e-08)
(1.140286967 -0.006180835788 2.232857139e-08)
(1.129269247 -0.006429310079 2.298143572e-08)
(1.117309527 -0.006638693922 2.31680135e-08)
(1.104381038 -0.006808187697 2.344190692e-08)
(1.090456608 -0.006937406712 2.341491168e-08)
(1.07550875 -0.007026178238 2.359425683e-08)
(1.059509656 -0.007073451698 2.3487068e-08)
(1.042431215 -0.007078445622 2.321838682e-08)
(1.024245226 -0.007054149302 2.283940771e-08)
(1.004931397 -0.006982044104 2.227908855e-08)
(0.9844733338 -0.006874143556 2.159655758e-08)
(0.9628535588 -0.006730602946 2.082565463e-08)
(0.940054661 -0.006552015794 1.996593862e-08)
(0.9160600432 -0.006340452625 1.906053252e-08)
(0.8908544933 -0.006098417495 1.812227728e-08)
(0.8644246078 -0.005828234436 1.71805515e-08)
(0.8367590798 -0.005532601766 1.622678836e-08)
(0.8078489421 -0.005219506703 1.524165418e-08)
(0.7776837964 -0.00488425277 1.420711459e-08)
(0.746256325 -0.004535320195 1.312892622e-08)
(0.7135628071 -0.004175752112 1.201967465e-08)
(0.6796029366 -0.003808684014 1.087039301e-08)
(0.6443796824 -0.00343777255 9.669113185e-09)
(0.6078991127 -0.003066762869 8.426282501e-09)
(0.5701702044 -0.002699405949 7.140353167e-09)
(0.5312046461 -0.002339487061 5.821522405e-09)
(0.4910166279 -0.00199082958 4.477726441e-09)
(0.4496226232 -0.001657330089 3.561366236e-09)
(0.4070411555 -0.001342890004 2.64400314e-09)
(0.3632925466 -0.001051048937 2.002228081e-09)
(0.3183976905 -0.0007865109395 1.357169888e-09)
(0.2723782655 -0.0005527997901 6.098096996e-10)
(0.2252573526 -0.0003539717514 3.009274841e-10)
(0.1770589946 -0.0001941143507 -4.45608049e-11)
(0.1278075657 -7.800405317e-05 -1.513569196e-10)
(0.07752691881 -1.179030863e-05 -2.319609496e-10)
(0.02623940501 3.951305555e-06 -7.810313799e-11)
(1.227620623 -0.0003182622463 2.562699309e-09)
(1.226910548 -0.0007341401566 6.114783347e-09)
(1.225347041 -0.00118184629 7.539793303e-09)
(1.222966823 -0.001626995172 9.190561876e-09)
(1.21977084 -0.002063391104 8.991616521e-09)
(1.215753908 -0.002486924803 9.088071744e-09)
(1.210907841 -0.002894346441 8.608065324e-09)
(1.205222333 -0.003282792673 7.805217463e-09)
(1.198685373 -0.003649608586 8.27837068e-09)
(1.191283496 -0.003992360147 9.74163935e-09)
(1.183001995 -0.004308849194 1.276098668e-08)
(1.173825135 -0.004597111253 1.348856541e-08)
(1.163736363 -0.004855426584 1.387914778e-08)
(1.152718538 -0.005082334933 1.552834744e-08)
(1.14075417 -0.005276644544 1.624165458e-08)
(1.127825681 -0.005437425496 1.806290633e-08)
(1.11391568 -0.005563974942 1.925380121e-08)
(1.099007278 -0.005655935038 1.897200009e-08)
(1.083084444 -0.005713937934 1.940459171e-08)
(1.066132452 -0.0057388679 1.93968019e-08)
(1.048138266 -0.005723936064 1.922009324e-08)
(1.029097616 -0.005682474334 1.895877609e-08)
(1.008994291 -0.005607848631 1.85962358e-08)
(0.9878036172 -0.00550299167 1.813760229e-08)
(0.9655043597 -0.005370014093 1.759216083e-08)
(0.9420781721 -0.005210653483 1.697040449e-08)
(0.9175093325 -0.005026876907 1.628326961e-08)
(0.8917843337 -0.004820868612 1.554092475e-08)
(0.8648917741 -0.004595254841 1.475232526e-08)
(0.8368225017 -0.00435253016 1.392447744e-08)
(0.8075695715 -0.004090615319 1.306309767e-08)
(0.7771240701 -0.003819602033 1.220212315e-08)
(0.7454799518 -0.003537545449 1.134100537e-08)
(0.7126341474 -0.00324818673 1.048154775e-08)
(0.678586191 -0.002955316547 9.627059569e-09)
(0.6433378857 -0.002662320529 8.781954233e-09)
(0.6068929241 -0.002372510045 7.951555165e-09)
(0.5692564729 -0.002089113562 7.141728984e-09)
(0.5304347278 -0.001815179569 6.358669701e-09)
(0.4904344407 -0.001553507364 5.608628283e-09)
(0.4492624289 -0.001306563391 4.897781299e-09)
(0.4069250754 -0.00107650957 4.225055707e-09)
(0.363427833 -0.0008655809381 3.591739217e-09)
(0.3187738329 -0.0006745327661 3.003605794e-09)
(0.2729640142 -0.0005051006786 2.45769699e-09)
(0.225997847 -0.0003582793386 1.951271575e-09)
(0.1778732044 -0.0002345781237 1.478473007e-09)
(0.1285863673 -0.0001337849245 1.032908042e-09)
(0.07813222744 -5.722140135e-05 6.091755385e-10)
(0.02650491811 -1.270327988e-05 2.001894326e-10)
(1.233104258 -0.0002254465849 -1.660560455e-10)
(1.232361403 -0.0005283405111 -4.193544265e-10)
(1.230725767 -0.0008633198379 -7.932712438e-10)
(1.228236925 -0.001197319998 -1.383473606e-09)
(1.224897705 -0.001524554752 -2.171016909e-09)
(1.220705068 -0.00184215973 -3.255594391e-09)
(1.215653355 -0.002147724573 -1.321116704e-09)
(1.209734934 -0.002439067379 7.290132795e-11)
(1.202938766 -0.002714259579 1.083962069e-09)
(1.195252765 -0.002971542831 1.71814979e-09)
(1.186663867 -0.003209327584 4.039721166e-09)
(1.177158142 -0.00342620813 4.012160142e-09)
(1.166720921 -0.003620963582 4.27717739e-09)
(1.155336913 -0.003792567569 5.657803361e-09)
(1.142990346 -0.003940190662 7.340215878e-09)
(1.129665073 -0.00406321748 8.571507164e-09)
(1.115344668 -0.004161309929 9.966610073e-09)
(1.100012459 -0.004234262827 1.047364205e-08)
(1.08365158 -0.004281246097 1.177861033e-08)
(1.066245286 -0.004301586744 1.266670476e-08)
(1.047776742 -0.004304317137 1.335593211e-08)
(1.028235328 -0.004276717972 1.375879202e-08)
(1.007610963 -0.00422679324 1.392642182e-08)
(0.9858929616 -0.004154532279 1.390276106e-08)
(0.9630707049 -0.00405984501 1.372064784e-08)
(0.9391340835 -0.003943677848 1.340429367e-08)
(0.9140738656 -0.003811230356 1.297237019e-08)
(0.8878796134 -0.003657852171 1.24609101e-08)
(0.8605404548 -0.003489146265 1.188663862e-08)
(0.8320476228 -0.003306578418 1.126268746e-08)