/*--------------------------------*- C++ -*----------------------------------*\
| =========                 |                                                 |
| \\      /  F ield         | OpenFOAM: The Open Source CFD Toolbox           |
|  \\    /   O peration     | Version:  5.x                                   |
|   \\  /    A nd           | Web:      www.OpenFOAM.org                      |
|    \\/     M anipulation  |                                                 |
\*---------------------------------------------------------------------------*/
FoamFile
{
    version     2.0;
    format      ascii;
    class       volScalarField;
    location    "0.004";
    object      dpstar;
}
// * * * * * * * * * * * * * * * * * * * * * * * * * * * * * * * * * * * * * //

dimensions      [0 1 0 0 0 0 0];

internalField   nonuniform List<scalar> 
7950
(
1.488612138e-10
1.488629501e-10
1.488995718e-10
1.489543827e-10
1.490272133e-10
1.491176392e-10
1.492258564e-10
1.493524043e-10
1.494979985e-10
1.496635125e-10
1.498499765e-10
1.500585799e-10
1.50290683e-10
1.505478346e-10
1.508317932e-10
1.511445503e-10
1.514883603e-10
1.518657747e-10
1.522796822e-10
1.527333576e-10
1.532305185e-10
1.537753935e-10
1.543728035e-10
1.550282602e-10
1.557480837e-10
1.565395468e-10
1.574110503e-10
1.583723397e-10
1.594347693e-10
1.606116378e-10
1.619186271e-10
1.633743244e-10
1.650008031e-10
1.668245444e-10
1.688787825e-10
1.712030675e-10
1.738427176e-10
1.768626904e-10
1.803420345e-10
1.843759135e-10
1.890969361e-10
1.946787736e-10
2.013580467e-10
2.094661714e-10
2.194815154e-10
2.32121579e-10
2.485185278e-10
2.705670712e-10
3.015564857e-10
3.471131974e-10
1.816689129e-10
1.817178732e-10
1.818554208e-10
1.820222452e-10
1.822344589e-10
1.824947583e-10
1.828038284e-10
1.831630427e-10
1.835742307e-10
1.840394162e-10
1.845608289e-10
1.851409998e-10
1.857827829e-10
1.864893767e-10
1.872643535e-10
1.88111689e-10
1.890358032e-10
1.900416015e-10
1.911345169e-10
1.923205497e-10
1.936063721e-10
1.94999473e-10
1.965081968e-10
1.981415882e-10
1.99909751e-10
2.01824081e-10
2.038972849e-10
2.06143471e-10
2.085785618e-10
2.112206054e-10
2.14089746e-10
2.172088788e-10
2.206031798e-10
2.243011313e-10
2.283382169e-10
2.327522153e-10
2.375756914e-10
2.428801929e-10
2.487182112e-10
2.551347589e-10
2.622247454e-10
2.700775994e-10
2.787985656e-10
2.885157522e-10
2.993873657e-10
3.116251938e-10
3.255484658e-10
3.416088436e-10
3.602928899e-10
3.862584503e-10
2.180540878e-10
2.18139358e-10
2.183721091e-10
2.18638435e-10
2.189692907e-10
2.193690519e-10
2.198382446e-10
2.203785271e-10
2.209921527e-10
2.216814872e-10
2.224490361e-10
2.232975851e-10
2.242302084e-10
2.25250271e-10
2.263614362e-10
2.275676695e-10
2.28873252e-10
2.302827853e-10
2.318011927e-10
2.334337315e-10
2.351860559e-10
2.370643159e-10
2.390750498e-10
2.412248832e-10
2.435209356e-10
2.459709437e-10
2.485830412e-10
2.513657554e-10
2.543282804e-10
2.57480472e-10
2.608325272e-10
2.643951972e-10
2.681791859e-10
2.721964069e-10
2.764617528e-10
2.80986631e-10
2.857786781e-10
2.908758342e-10
2.962824066e-10
3.019941872e-10
3.080494703e-10
3.144658306e-10
3.212639418e-10
3.284728667e-10
3.361356937e-10
3.443310531e-10
3.532168624e-10
3.630383333e-10
3.740428167e-10
3.906747508e-10
2.499847467e-10
2.501761208e-10
2.505314513e-10
2.508773674e-10
2.512840997e-10
2.517633562e-10
2.523159955e-10
2.529441644e-10
2.536506479e-10
2.544378712e-10
2.553079337e-10
2.562629498e-10
2.573068592e-10
2.584409113e-10
2.596681222e-10
2.609927397e-10
2.624163509e-10
2.639426566e-10
2.655748459e-10
2.67316014e-10
2.691694557e-10
2.711388298e-10
2.732274653e-10
2.754378679e-10
2.7777216e-10
2.802345371e-10
2.828340042e-10
2.855592454e-10
2.884159614e-10
2.914198865e-10
2.945624304e-10
2.978464185e-10
3.012747316e-10
3.048497062e-10
3.085746455e-10
3.124494376e-10
3.164756351e-10
3.206738905e-10
3.250331839e-10
3.295436358e-10
3.342296179e-10
3.39098447e-10
3.441643258e-10
3.494559168e-10
3.55028811e-10
3.610023231e-10
3.676265532e-10
3.75299528e-10
3.846826032e-10
4.047048056e-10
2.725070646e-10
2.727495625e-10
2.731710196e-10
2.73560004e-10
2.740037973e-10
2.74516132e-10
2.750977587e-10
2.757509154e-10
2.764783582e-10
2.772822268e-10
2.781642008e-10
2.791261106e-10
2.801710629e-10
2.812995915e-10
2.825140642e-10
2.8381739e-10
2.852100731e-10
2.866944162e-10
2.882720076e-10
2.899442127e-10
2.917124532e-10
2.935781806e-10
2.955421755e-10
2.976043325e-10
2.997645672e-10
3.020248512e-10
3.043882441e-10
3.068426089e-10
3.093924294e-10
3.120471398e-10
3.147958415e-10
3.176380279e-10
3.205730758e-10
3.235998422e-10
3.26717474e-10
3.299226326e-10
3.332155758e-10
3.366088321e-10
3.400871959e-10
3.436413369e-10
3.472911896e-10
3.510416802e-10
3.549054248e-10
3.589100823e-10
3.631108294e-10
3.676246785e-10
3.726904649e-10
3.786891548e-10
3.863529574e-10
4.040522215e-10
2.861426515e-10
2.864823326e-10
2.869821556e-10
2.874112379e-10
2.878836557e-10
2.884184313e-10
2.890168746e-10
2.896816845e-10
2.904158801e-10
2.912214717e-10
2.920998835e-10
2.930527582e-10
2.940824499e-10
2.951891695e-10
2.963747824e-10
2.97641142e-10
2.989881825e-10
3.004172399e-10
3.019289194e-10
3.035233692e-10
3.052002068e-10
3.069603058e-10
3.088091094e-10
3.107326068e-10
3.127320218e-10
3.148198598e-10
3.169855285e-10
3.192203698e-10
3.215295066e-10
3.23917399e-10
3.263738623e-10
3.288974244e-10
3.31486549e-10
3.341394084e-10
3.368543054e-10
3.39628466e-10
3.424635454e-10
3.453679074e-10
3.483282776e-10
3.513406905e-10
3.544252218e-10
3.575910646e-10
3.608576845e-10
3.642635033e-10
3.678823032e-10
3.718663125e-10
3.765222173e-10
3.823519796e-10
3.903993071e-10
4.11784643e-10
2.934591143e-10
2.938316909e-10
2.943611719e-10
2.948118928e-10
2.95302394e-10
2.958518304e-10
2.964615528e-10
2.971342894e-10
2.97872905e-10
2.986791727e-10
2.995543058e-10
3.004997463e-10
3.015172758e-10
3.026069204e-10
3.03770136e-10
3.050080619e-10
3.063203113e-10
3.077075885e-10
3.091698643e-10
3.10706665e-10
3.123172942e-10
3.140023979e-10
3.157641016e-10
3.175902637e-10
3.194829393e-10
3.214505073e-10
3.234820846e-10
3.255705933e-10
3.277201641e-10
3.299323737e-10
3.321978473e-10
3.345146437e-10
3.368807841e-10
3.392941093e-10
3.417525826e-10
3.442539342e-10
3.468001927e-10
3.493968489e-10
3.520320512e-10
3.54704395e-10
3.574325397e-10
3.602263502e-10
3.631061361e-10
3.661111449e-10
3.693158202e-10
3.728704557e-10
3.770713243e-10
3.824066286e-10
3.899337437e-10
4.105818148e-10
2.971188586e-10
2.975426605e-10
2.981075102e-10
2.98580056e-10
2.990880932e-10
2.996526663e-10
3.002754641e-10
3.009594426e-10
3.017074735e-10
3.025211602e-10
3.03401553e-10
3.04349918e-10
3.053675999e-10
3.064545227e-10
3.076118033e-10
3.088400685e-10
3.101387486e-10
3.1150813e-10
3.129476628e-10
3.144559732e-10
3.16032573e-10
3.176826288e-10
3.193964308e-10
3.211655635e-10
3.230014723e-10
3.249018473e-10
3.268575409e-10
3.288635217e-10
3.309230901e-10
3.330360954e-10
3.351942063e-10
3.373954757e-10
3.396379651e-10
3.419196764e-10
3.442388447e-10
3.465941069e-10
3.4898808e-10
3.514248912e-10
3.538949635e-10
3.563998927e-10
3.589586449e-10
3.615838258e-10
3.642997666e-10
3.67151761e-10
3.702244026e-10
3.736868505e-10
3.778719226e-10
3.833355645e-10
3.913174959e-10
4.142946768e-10
2.98738346e-10
2.991769109e-10
2.997526361e-10
3.002368331e-10
3.0075633e-10
3.013316209e-10
3.019644109e-10
3.026576071e-10
3.034139107e-10
3.042347576e-10
3.05121072e-10
3.060739612e-10
3.070944587e-10
3.081824111e-10
3.093386745e-10
3.105635304e-10
3.118562739e-10
3.132168565e-10
3.146444133e-10
3.161375019e-10
3.176959127e-10
3.193228706e-10
3.210087183e-10
3.227470986e-10
3.245475317e-10
3.264065968e-10
3.28315608e-10
3.302704174e-10
3.322736209e-10
3.343240059e-10
3.364139835e-10
3.385415542e-10
3.407047456e-10
3.429015876e-10
3.451304087e-10
3.473902687e-10
3.496837751e-10
3.520138548e-10
3.543721767e-10
3.567616047e-10
3.592002545e-10
3.61701125e-10
3.642889358e-10
3.670092387e-10
3.699465774e-10
3.732679737e-10
3.772979559e-10
3.825815459e-10
3.903449106e-10
4.130200367e-10
2.9933634e-10
2.997984835e-10
3.00388677e-10
3.008839927e-10
3.014135184e-10
3.019982395e-10
3.026400384e-10
3.033419066e-10
3.04106469e-10
3.049350264e-10
3.05828398e-10
3.067875499e-10
3.078132797e-10
3.089053671e-10
3.100644496e-10
3.112905629e-10
3.125829263e-10
3.139411874e-10
3.153638498e-10
3.168495165e-10
3.184019341e-10
3.200161637e-10
3.216837113e-10
3.234061714e-10
3.251863374e-10
3.270210138e-10
3.289024149e-10
3.308270197e-10
3.327968761e-10
3.34810156e-10
3.368599632e-10
3.3894436e-10
3.410614898e-10
3.432095599e-10
3.453871511e-10
3.475938095e-10
3.498322983e-10
3.521050258e-10
3.544050521e-10
3.567366756e-10
3.591180977e-10
3.615637145e-10
3.641002844e-10
3.667763804e-10
3.696815434e-10
3.729919667e-10
3.770498749e-10
3.824330147e-10
3.904617548e-10
4.143651618e-10
2.993879341e-10
2.998558826e-10
3.004492612e-10
3.009500679e-10
3.014855516e-10
3.020761672e-10
3.027237918e-10
3.034313558e-10
3.042013547e-10
3.050349823e-10
3.059329749e-10
3.068961876e-10
3.079252466e-10
3.090198781e-10
3.10180559e-10
3.11407145e-10
3.12698766e-10
3.140548597e-10
3.154738386e-10
3.169545596e-10
3.185000135e-10
3.201048166e-10
3.217611756e-10
3.234707875e-10
3.252357447e-10
3.270523944e-10
3.289133395e-10
3.30815471e-10
3.327604084e-10
3.347460047e-10
3.367657402e-10
3.38817625e-10
3.408999231e-10
3.430108706e-10
3.451491348e-10
3.473144728e-10
3.495095474e-10
3.517362255e-10
3.539883248e-10
3.562707232e-10
3.586010936e-10
3.609939769e-10
3.634762534e-10
3.660964729e-10
3.689437798e-10
3.721924491e-10
3.761784757e-10
3.81471029e-10
3.893819235e-10
4.130347981e-10
2.991827738e-10
2.996613545e-10
3.002600415e-10
3.007658491e-10
3.013060842e-10
3.019012589e-10
3.025533356e-10
3.032652635e-10
3.040394569e-10
3.048770221e-10
3.057786253e-10
3.067450224e-10
3.077767065e-10
3.088733578e-10
3.100353239e-10
3.112623462e-10
3.125534575e-10
3.1390765e-10
3.153232205e-10
3.168019361e-10
3.183417149e-10
3.199373507e-10
3.21585984e-10
3.232858531e-10
3.250391729e-10
3.268422437e-10
3.286879717e-10
3.305733386e-10
3.324996583e-10
3.344667928e-10
3.364646582e-10
3.38491666e-10
3.405502154e-10
3.426355163e-10
3.447467292e-10
3.468841991e-10
3.490506398e-10
3.512476928e-10
3.534699864e-10
3.557231439e-10
3.580248303e-10
3.603897175e-10
3.628464454e-10
3.654449827e-10
3.682755243e-10
3.715170859e-10
3.755130283e-10
3.808460674e-10
3.888701443e-10
4.130687247e-10
2.988356396e-10
2.993159055e-10
2.999145151e-10
3.00422231e-10
3.009647341e-10
3.015621378e-10
3.022163924e-10
3.029303933e-10
3.037064667e-10
3.045456494e-10
3.054485537e-10
3.064158629e-10
3.074479717e-10
3.085445243e-10
3.097057702e-10
3.109313493e-10
3.122202241e-10
3.135712843e-10
3.14982925e-10
3.164567264e-10
3.17990325e-10
3.195785236e-10
3.212185883e-10
3.229088903e-10
3.246512218e-10
3.26441747e-10
3.28273581e-10
3.301438841e-10
3.320538965e-10
3.340029454e-10
3.359814553e-10
3.379880288e-10
3.400247013e-10
3.420869206e-10
3.441739198e-10
3.462861442e-10
3.484262322e-10
3.5059558e-10
3.527892759e-10
3.550132141e-10
3.572847041e-10
3.596184936e-10
3.620431429e-10
3.646083913e-10
3.674039422e-10
3.706070543e-10
3.745562829e-10
3.79827328e-10
3.877660995e-10
4.117294382e-10
2.984264267e-10
2.989109499e-10
2.995106389e-10
3.000199446e-10
3.005639586e-10
3.011627076e-10
3.018181762e-10
3.025332401e-10
3.033101774e-10
3.041499575e-10
3.050531583e-10
3.060203925e-10
3.070519775e-10
3.081475425e-10
3.093072463e-10
3.105304596e-10
3.11816023e-10
3.131646114e-10
3.145717017e-10
3.160389202e-10
3.175668244e-10
3.191477652e-10
3.207794076e-10
3.22460426e-10
3.24192212e-10
3.259723595e-10
3.277914807e-10
3.29647144e-10
3.315432973e-10
3.334767129e-10
3.354385771e-10
3.37427805e-10
3.394462136e-10
3.41489465e-10
3.435568822e-10
3.456490214e-10
3.477685116e-10
3.499166365e-10
3.520889298e-10
3.542916116e-10
3.565418861e-10
3.588548166e-10
3.612593653e-10
3.638057403e-10
3.665843558e-10
3.697737461e-10
3.737146724e-10
3.789866421e-10
3.86950133e-10
4.11093321e-10
2.979794143e-10
2.984636051e-10
2.99061675e-10
2.99570847e-10
3.001148943e-10
3.007135501e-10
3.013687858e-10
3.020834351e-10
3.028597164e-10
3.036985543e-10
3.046004883e-10
3.055660844e-10
3.065955999e-10
3.076886394e-10
3.088452958e-10
3.100648805e-10
3.113462396e-10
3.126899063e-10
3.140915131e-10
3.155525423e-10
3.170732824e-10
3.186462897e-10
3.202692104e-10
3.219407549e-10
3.236621748e-10
3.25430803e-10
3.272375277e-10
3.290801247e-10
3.309622516e-10
3.328805229e-10
3.348264424e-10
3.367990172e-10
3.387998743e-10
3.408248265e-10
3.428732446e-10
3.449457343e-10
3.470448648e-10
3.491717917e-10
3.513223228e-10
3.535027992e-10
3.557301724e-10
3.580194988e-10
3.603996006e-10
3.629203866e-10
3.656716886e-10
3.688304225e-10
3.727333915e-10
3.779540019e-10
3.858442907e-10
4.097599092e-10
2.975180271e-10
2.980032296e-10
2.986002692e-10
2.991090864e-10
2.996526939e-10
3.00250699e-10
3.009050869e-10
3.016186713e-10
3.023936312e-10
3.032308468e-10
3.041308213e-10
3.050939969e-10
3.061204937e-10
3.072110189e-10
3.08364009e-10
3.095786016e-10
3.108553064e-10
3.121935428e-10
3.135892412e-10
3.150435128e-10
3.165564547e-10
3.181219256e-10
3.197357941e-10
3.213969486e-10
3.23108312e-10
3.248656147e-10
3.266602e-10
3.284901493e-10
3.303588791e-10
3.322629116e-10
3.341940169e-10
3.361512783e-10
3.381361872e-10
3.4014469e-10
3.421762061e-10
3.442313982e-10
3.463128079e-10
3.484215266e-10
3.505536275e-10
3.527155953e-10
3.549242539e-10
3.571947701e-10
3.59556032e-10
3.620580083e-10
3.64790587e-10
3.679306155e-10
3.718145684e-10
3.770148936e-10
3.848845588e-10
4.087932564e-10
2.970460321e-10
2.975298291e-10
2.981244439e-10
2.986319473e-10
2.991742602e-10
2.997707667e-10
3.004234348e-10
3.011350441e-10
3.019077315e-10
3.027423481e-10
3.036393729e-10
3.045992171e-10
3.056219813e-10
3.067083368e-10
3.078567031e-10
3.090662014e-10
3.103373373e-10
3.116694218e-10
3.130584598e-10
3.145055185e-10
3.160105281e-10
3.175673879e-10
3.191720244e-10
3.20823393e-10
3.225242191e-10
3.242701501e-10
3.260527217e-10
3.278701273e-10
3.297256078e-10
3.316156175e-10
3.335321335e-10
3.354742883e-10
3.374434632e-10
3.394357022e-10
3.414504516e-10
3.43488398e-10
3.455520378e-10
3.47642387e-10
3.497556884e-10
3.518984715e-10
3.540873609e-10
3.563374679e-10
3.586775056e-10
3.611571038e-10
3.638655194e-10
3.669780723e-10
3.708277751e-10
3.759815181e-10
3.837832054e-10
4.074708524e-10
2.96571149e-10
2.970542541e-10
2.97646749e-10
2.981527516e-10
2.986933717e-10
2.992882328e-10
2.999388506e-10
3.006478715e-10
3.014179529e-10
3.02249591e-10
3.031432466e-10
3.040993512e-10
3.051179553e-10
3.061996207e-10
3.073429569e-10
3.085469273e-10
3.098123174e-10
3.111377209e-10
3.125192722e-10
3.13958794e-10
3.154554488e-10
3.170032619e-10
3.185983059e-10
3.202396091e-10
3.21929715e-10
3.236642396e-10
3.254348849e-10
3.272399286e-10
3.290824754e-10
3.309589381e-10
3.328614637e-10
3.347892239e-10
3.367435181e-10
3.387204764e-10
3.407195727e-10
3.427415203e-10
3.447887851e-10
3.468623457e-10
3.489586032e-10
3.51084141e-10
3.532554539e-10
3.554876569e-10
3.578093952e-10
3.602701423e-10
3.629588502e-10
3.660501204e-10
3.698754353e-10
3.749987139e-10
3.827585006e-10
4.06346579e-10
2.960930914e-10
2.965741841e-10
2.971638088e-10
2.976678093e-10
2.982063616e-10
2.987989142e-10
2.994469711e-10
3.001531479e-10
3.00920074e-10
3.017482293e-10
3.02638059e-10
3.035899732e-10
3.046040101e-10
3.056806868e-10
3.068185992e-10
3.080167127e-10
3.092757506e-10
3.105942563e-10
3.119684367e-10
3.13400043e-10
3.14888151e-10
3.16426831e-10
3.180122074e-10
3.196433486e-10
3.213226731e-10
3.230457658e-10
3.248044675e-10
3.265971235e-10
3.28426725e-10
3.302896553e-10
3.321782051e-10
3.340915759e-10
3.360309995e-10
3.37992673e-10
3.399760899e-10
3.419819721e-10
3.440127525e-10
3.460693623e-10
3.48148314e-10
3.502561946e-10
3.524093296e-10
3.546227529e-10
3.569249115e-10
3.593649193e-10
3.620310625e-10
3.650964641e-10
3.68889458e-10
3.739687538e-10
3.81662983e-10
4.050370889e-10
2.956148966e-10
2.960944154e-10
2.966812925e-10
2.971831661e-10
2.977194923e-10
2.98309583e-10
2.989548762e-10
2.9965787e-10
3.004213226e-10
3.012456646e-10
3.02131287e-10
3.030785938e-10
3.040876133e-10
3.051588262e-10
3.062908221e-10
3.074825694e-10
3.087347496e-10
3.100459069e-10
3.114122904e-10
3.128356091e-10
3.143148745e-10
3.15844209e-10
3.174197775e-10
3.190406769e-10
3.207092323e-10
3.224210072e-10
3.241679576e-10
3.259484824e-10
3.277654782e-10
3.296153148e-10
3.31490401e-10
3.333899588e-10
3.353151692e-10
3.37262289e-10
3.392308256e-10
3.412215109e-10
3.432367503e-10
3.452774497e-10
3.473402221e-10
3.494316614e-10
3.515679611e-10
3.537641106e-10
3.560484237e-10
3.584697509e-10
3.61115904e-10
3.641590154e-10
3.679253587e-10
3.729698522e-10
3.806130651e-10
4.038447488e-10
2.951359664e-10
2.956132249e-10
2.961970541e-10
2.966966282e-10
2.972305394e-10
2.978179339e-10
2.984602374e-10
2.991599264e-10
2.999197208e-10
3.007400368e-10
3.016212494e-10
3.025637438e-10
3.035675366e-10
3.046330783e-10
3.057589535e-10
3.069441364e-10
3.081892743e-10
3.094928879e-10
3.108512814e-10
3.122661197e-10
3.137363686e-10
3.152561938e-10
3.168218001e-10
3.184323076e-10
3.200899599e-10
3.217903143e-10
3.235254269e-10
3.252937362e-10
3.27098062e-10
3.289347668e-10
3.307963605e-10
3.326820814e-10
3.345930654e-10
3.36525617e-10
3.384792527e-10
3.404547051e-10
3.424543504e-10
3.444790618e-10
3.465255255e-10
3.486003123e-10
3.507194672e-10
3.528978798e-10
3.551636555e-10
3.575652729e-10
3.601898614e-10
3.632081132e-10
3.669433589e-10
3.719455382e-10
3.795246771e-10
4.025488473e-10
2.94657277e-10
2.951323928e-10
2.957131838e-10
2.962102952e-10
2.967415684e-10
2.973260223e-10
2.979650771e-10
2.986611916e-10
2.994170566e-10
3.00233076e-10
3.011096147e-10
3.020470437e-10
3.030453702e-10
3.041050224e-10
3.052245852e-10
3.064030349e-10
3.076409916e-10
3.089369602e-10
3.102872873e-10
3.116935957e-10
3.131548202e-10
3.146651663e-10
3.162208687e-10
3.178210637e-10
3.194679321e-10
3.211570331e-10
3.228805072e-10
3.246368247e-10
3.264287439e-10
3.282526279e-10
3.301010756e-10
3.319733376e-10
3.338705163e-10
3.357889622e-10
3.377281986e-10
3.396889598e-10
3.416736021e-10
3.436829787e-10
3.457138393e-10
3.477727414e-10
3.498756054e-10
3.520372389e-10
3.54285581e-10
3.566688088e-10
3.592734833e-10
3.622691569e-10
3.659768883e-10
3.709425317e-10
3.784669361e-10
4.013280947e-10
2.941785083e-10
2.946510923e-10
2.952286428e-10
2.957231347e-10
2.962516274e-10
2.968329994e-10
2.974686595e-10
2.981610478e-10
2.989128263e-10
2.997243886e-10
3.005960895e-10
3.015282871e-10
3.025209815e-10
3.035745811e-10
3.046876696e-10
3.058592265e-10
3.070898488e-10
3.0837803e-10
3.097201524e-10
3.111178056e-10
3.125698997e-10
3.14070676e-10
3.156163987e-10
3.172062154e-10
3.18842253e-10
3.205200775e-10
3.222319057e-10
3.239762303e-10
3.257557581e-10
3.275668565e-10
3.29402201e-10
3.312610509e-10
3.331444805e-10
3.350488754e-10
3.369737637e-10
3.389198774e-10
3.408895462e-10
3.428836031e-10
3.448988445e-10
3.469417932e-10
3.490282316e-10
3.511728603e-10
3.534034024e-10
3.557676583e-10
3.583515007e-10
3.613230721e-10
3.650006286e-10
3.699252208e-10
3.773868294e-10
4.000459908e-10
2.937003e-10
2.941704836e-10
2.94744848e-10
2.952366721e-10
2.957623044e-10
2.963405038e-10
2.969726675e-10
2.976612299e-10
2.984088197e-10
2.992158216e-10
3.000825815e-10
3.010094442e-10
3.019964068e-10
3.030438606e-10
3.041503898e-10
3.053149764e-10
3.065381973e-10
3.078185381e-10
3.09152413e-10
3.105413846e-10
3.119843448e-10
3.134755689e-10
3.15011348e-10
3.165908371e-10
3.182161199e-10
3.198827743e-10
3.21583084e-10
3.233155623e-10
3.250828719e-10
3.268813878e-10
3.287038559e-10
3.305495427e-10
3.324194997e-10
3.343101468e-10
3.362210177e-10
3.381528415e-10
3.401079259e-10
3.420870891e-10
3.440871771e-10
3.461146766e-10
3.481852499e-10
3.503135032e-10
3.525269718e-10
3.548731272e-10
3.574372299e-10
3.603862023e-10
3.640359424e-10
3.689232876e-10
3.763284953e-10
3.988135952e-10
2.932223022e-10
2.936898366e-10
2.942608848e-10
2.947499474e-10
2.952726347e-10
2.958475784e-10
2.964761648e-10
2.971608094e-10
2.979041165e-10
2.987064633e-10
2.995681868e-10
3.004896224e-10
3.014707604e-10
3.02511979e-10
3.036118624e-10
3.047693951e-10
3.059851376e-10
3.072575708e-10
3.08583136e-10
3.099633702e-10
3.113971529e-10
3.128787933e-10
3.144046057e-10
3.159737509e-10
3.175882757e-10
3.192437725e-10
3.209325863e-10
3.226532452e-10
3.244083731e-10
3.261943578e-10
3.280040065e-10
3.298365909e-10
3.316931418e-10
3.335701089e-10
3.35467028e-10
3.373846221e-10
3.393251762e-10
3.412894937e-10
3.432744528e-10
3.452864983e-10
3.473411628e-10
3.494529398e-10
3.516491474e-10
3.539768799e-10
3.565207117e-10
3.594461845e-10
3.630664963e-10
3.679138189e-10
3.75257459e-10
3.975453146e-10
2.927449411e-10
2.932099206e-10
2.937777007e-10
2.942639833e-10
2.947836892e-10
2.953553348e-10
2.959802975e-10
2.966609743e-10
2.973999505e-10
2.981975927e-10
2.990542329e-10
2.999701944e-10
3.009454666e-10
3.019804106e-10
3.030736168e-10
3.042240703e-10
3.05432315e-10
3.066968336e-10
3.080140882e-10
3.093855947e-10
3.108102242e-10
3.122823185e-10
3.13798214e-10
3.15357076e-10
3.169609197e-10
3.186053539e-10
3.202827806e-10
3.219917416e-10
3.237348271e-10
3.255084379e-10
3.273054389e-10
3.291251088e-10
3.309684593e-10
3.328319681e-10
3.34715175e-10
3.366187979e-10
3.385450998e-10
3.404948736e-10
3.42465032e-10
3.444619778e-10
3.46501124e-10
3.485968651e-10
3.507763152e-10
3.530862232e-10
3.556105383e-10
3.585135447e-10
3.621060121e-10
3.669158702e-10
3.742024502e-10
3.96310689e-10
2.922679333e-10
2.927302094e-10
2.932946454e-10
2.937780986e-10
2.942947796e-10
2.948630865e-10
2.954843843e-10
2.961610522e-10
2.968956549e-10
2.976885513e-10
2.98540066e-10
2.994505153e-10
3.004198817e-10
3.014485169e-10
3.025350133e-10
3.03678357e-10
3.048790794e-10
3.061356638e-10
3.074445922e-10
3.08807361e-10
3.102228359e-10
3.116853899e-10
3.131913809e-10
3.14739976e-10
3.163331634e-10
3.179665701e-10
3.196326521e-10
3.2132996e-10
3.230610549e-10
3.248223525e-10
3.266067716e-10
3.284135938e-10
3.302438149e-10
3.320939384e-10
3.339635047e-10
3.358532249e-10
3.377653407e-10
3.397006327e-10
3.416560397e-10
3.436379169e-10
3.456615535e-10
3.477412289e-10
3.49903843e-10
3.521957677e-10
3.547002743e-10
3.575802937e-10
3.611439737e-10
3.659146957e-10
3.731408971e-10
3.950561697e-10
2.91791586e-10
2.922512257e-10
2.9281236e-10
2.932929839e-10
2.938066298e-10
2.94371584e-10
2.949892022e-10
2.95661847e-10
2.963920589e-10
2.971801952e-10
2.980265726e-10
2.989314984e-10
2.998949533e-10
3.009172782e-10
3.01997065e-10
3.031333047e-10
3.043265176e-10
3.055751858e-10
3.068758127e-10
3.082298756e-10
3.096362364e-10
3.110893003e-10
3.125854453e-10
3.141238403e-10
3.157064483e-10
3.173289181e-10
3.189837534e-10
3.206695145e-10
3.223887346e-10
3.241378491e-10
3.259098249e-10
3.277039469e-10
3.29521199e-10
3.313581085e-10
3.332142173e-10
3.350902291e-10
3.369883665e-10
3.389094e-10
3.408502963e-10
3.428173659e-10
3.448257769e-10
3.468897044e-10
3.490358448e-10
3.513102173e-10
3.53795446e-10
3.566531996e-10
3.601891867e-10
3.649225379e-10
3.720916119e-10
3.938252228e-10
2.91315686e-10
2.917726079e-10
2.923304006e-10
2.928081739e-10
2.933187693e-10
2.938803577e-10
2.944942842e-10
2.951628939e-10
2.958887072e-10
2.966720753e-10
2.975133083e-10
2.984127064e-10
2.993702455e-10
3.003862575e-10
3.014593382e-10
3.025884792e-10
3.037741902e-10
3.050149557e-10
3.063072965e-10
3.076526735e-10
3.090499462e-10
3.104935507e-10
3.11979884e-10
3.135081161e-10
3.150801874e-10
3.166917679e-10
3.183354102e-10
3.200096805e-10
3.217170876e-10
3.234540846e-10
3.252136864e-10
3.269951796e-10
3.287995366e-10
3.306233073e-10
3.32466033e-10
3.343284111e-10
3.362126435e-10
3.381194896e-10
3.40045938e-10
3.419982516e-10
3.439914776e-10
3.46039676e-10
3.481693307e-10
3.504260899e-10
3.52891908e-10
3.557271271e-10
3.592349005e-10
3.639299085e-10
3.710397681e-10
3.925843434e-10
2.90840434e-10
2.912946926e-10
2.91849182e-10
2.923241164e-10
2.928316663e-10
2.933898911e-10
2.940001273e-10
2.946647054e-10
2.953861297e-10
2.961647394e-10
2.970008403e-10
2.978947233e-10
2.988463636e-10
2.998560827e-10
3.009224799e-10
3.020445483e-10
3.032227883e-10
3.044556869e-10
3.057397816e-10
3.070765183e-10
3.084647571e-10
3.098989613e-10
3.113755468e-10
3.128936858e-10
3.144552969e-10
3.160560721e-10
3.176886094e-10
3.193514851e-10
3.21047183e-10
3.227721724e-10
3.245195167e-10
3.262885054e-10
3.280800984e-10
3.298908686e-10
3.317203583e-10
3.335692573e-10
3.354397486e-10
3.373325816e-10
3.392447694e-10
3.411825279e-10
3.431607852e-10
3.451934964e-10
3.47306939e-10
3.495464036e-10
3.519932029e-10
3.548064105e-10
3.582867526e-10
3.629446779e-10
3.69997676e-10
3.913607109e-10
2.903657127e-10
2.908172629e-10
2.913684313e-10
2.918405223e-10
2.923450276e-10
2.928998944e-10
2.935064485e-10
2.941670034e-10
2.948840442e-10
2.956579043e-10
2.964888834e-10
2.973772659e-10
2.983230224e-10
2.993264669e-10
3.003862022e-10
3.015012224e-10
3.026720183e-10
3.038970799e-10
3.051729618e-10
3.065010943e-10
3.078803371e-10
3.093051835e-10
3.10772068e-10
3.122801631e-10
3.138313672e-10
3.154213948e-10
3.170428892e-10
3.186944333e-10
3.203784875e-10
3.220915399e-10
3.238266995e-10
3.255832577e-10
3.27362163e-10
3.291600096e-10
3.309763412e-10
3.328118394e-10
3.346686674e-10
3.365475649e-10
3.38445565e-10
3.403688352e-10
3.423321852e-10
3.443494578e-10
3.464467199e-10
3.486688972e-10
3.510966438e-10
3.53887732e-10
3.57340387e-10
3.619607012e-10
3.689556235e-10
3.901333194e-10
2.89891656e-10
2.903405363e-10
2.908884166e-10
2.913576797e-10
2.918591531e-10
2.924106726e-10
2.930135555e-10
2.936700987e-10
2.943827714e-10
2.95151904e-10
2.959777864e-10
2.968606933e-10
2.978005938e-10
2.987977946e-10
2.998509018e-10
3.009589102e-10
3.021223023e-10
3.033395705e-10
3.046072872e-10
3.059268679e-10
3.072971723e-10
3.087127226e-10
3.101699712e-10
3.11668092e-10
3.132089644e-10
3.147883227e-10
3.163988578e-10
3.180391588e-10
3.197116634e-10
3.214128767e-10
3.231359539e-10
3.248801907e-10
3.266465225e-10
3.284315634e-10
3.302348619e-10
3.320570909e-10
3.339003919e-10
3.357654983e-10
3.376494646e-10
3.395584086e-10
3.415070273e-10
3.435090556e-10
3.455903533e-10
3.477954965e-10
3.502044978e-10
3.529738633e-10
3.563994137e-10
3.609830412e-10
3.679216075e-10
3.889192136e-10
2.894181562e-10
2.898643496e-10
2.904089386e-10
2.908753799e-10
2.913738315e-10
2.919220185e-10
2.925212479e-10
2.931737996e-10
2.938821246e-10
2.946465474e-10
2.954673521e-10
2.963448073e-10
2.972788779e-10
2.982698634e-10
2.993163736e-10
3.004174043e-10
3.015734292e-10
3.027829441e-10
3.040425382e-10
3.053536115e-10
3.067150243e-10
3.081213286e-10
3.09568995e-10
3.110571975e-10
3.125877966e-10
3.141565488e-10
3.157561901e-10
3.173853151e-10
3.190463397e-10
3.207357875e-10
3.224468583e-10
3.241788496e-10
3.259326862e-10
3.277050033e-10
3.294953496e-10
3.313043905e-10
3.331342484e-10
3.349856474e-10
3.368556613e-10
3.387503595e-10
3.406843236e-10
3.426711774e-10
3.447365738e-10
3.469247306e-10
3.493150134e-10
3.520626517e-10
3.554610137e-10
3.600077216e-10
3.668893184e-10
3.877051408e-10
2.889453078e-10
2.893888471e-10
2.899301736e-10
2.903938092e-10
2.908892544e-10
2.91434128e-10
2.920297228e-10
2.926783049e-10
2.933823063e-10
2.941420444e-10
2.949578002e-10
2.958298325e-10
2.967581048e-10
2.977429092e-10
2.987828588e-10
2.998769537e-10
3.010256572e-10
3.022274681e-10
3.034789913e-10
3.047816122e-10
3.061341923e-10
3.075313129e-10
3.089694622e-10
3.104478152e-10
3.119682137e-10
3.135264364e-10
3.15115264e-10
3.16733296e-10
3.183829277e-10
3.200607013e-10
3.217598601e-10
3.234797054e-10
3.252211483e-10
3.269808482e-10
3.287583543e-10
3.305543232e-10
3.323708609e-10
3.342086782e-10
3.360648726e-10
3.37945465e-10
3.398649243e-10
3.418367684e-10
3.438864435e-10
3.460578236e-10
3.484296374e-10
3.511558622e-10
3.545274899e-10
3.59037982e-10
3.658639048e-10
3.865018736e-10
2.88473087e-10
2.889139421e-10
2.894520053e-10
2.899128471e-10
2.904053004e-10
2.909468747e-10
2.915388529e-10
2.921834842e-10
2.928831826e-10
2.9363826e-10
2.944489916e-10
2.953156306e-10
2.962381363e-10
2.972167939e-10
2.982502203e-10
2.993374166e-10
3.004788377e-10
3.016729862e-10
3.029164833e-10
3.042106996e-10
3.055544973e-10
3.069424876e-10
3.083711762e-10
3.098397387e-10
3.113499983e-10
3.12897756e-10
3.14475837e-10
3.160828463e-10
3.177211575e-10
3.193873318e-10
3.210746564e-10
3.227824339e-10
3.245115656e-10
3.262587315e-10
3.280234814e-10
3.298064642e-10
3.316097674e-10
3.33434093e-10
3.35276557e-10
3.371431329e-10
3.390481762e-10
3.410050957e-10
3.430391346e-10
3.451938146e-10
3.475472291e-10
3.502521032e-10
3.535970219e-10
3.580712591e-10
3.648412852e-10
3.853009378e-10
2.880015116e-10
2.884397288e-10
2.889745602e-10
2.89432628e-10
2.899221072e-10
2.904603957e-10
2.910487792e-10
2.916894815e-10
2.923848993e-10
2.931353417e-10
2.939410772e-10
2.948023524e-10
2.957191245e-10
2.96691671e-10
2.977186119e-10
2.987989507e-10
2.999331341e-10
3.011196669e-10
3.023551876e-10
3.036410526e-10
3.049761247e-10
3.063550444e-10
3.077743352e-10
3.092331736e-10
3.107333637e-10
3.122707302e-10
3.138381418e-10
3.154342071e-10
3.170612802e-10
3.18715942e-10
3.203915226e-10
3.220873254e-10
3.238042431e-10
3.255389755e-10
3.272910731e-10
3.29061178e-10
3.308513606e-10
3.326623124e-10
3.344911682e-10
3.363438563e-10
3.382346176e-10
3.401767602e-10
3.421953263e-10
3.443334857e-10
3.466687098e-10
3.493525e-10
3.526710856e-10
3.571096327e-10
3.638247553e-10
3.841092221e-10
2.87530535e-10
2.879661142e-10
2.884977239e-10
2.889530282e-10
2.894395478e-10
2.899745731e-10
2.905593797e-10
2.911961749e-10
2.918873376e-10
2.926331715e-10
2.934339398e-10
2.942898832e-10
2.95200955e-10
2.961674263e-10
2.971879205e-10
2.982614426e-10
2.993884309e-10
3.005673941e-10
3.017949871e-10
3.030725517e-10
3.043989517e-10
3.057688571e-10
3.071788089e-10
3.086279841e-10
3.101181689e-10
3.1164521e-10
3.132020202e-10
3.147872134e-10
3.164031229e-10
3.180463481e-10
3.197102623e-10
3.213941709e-10
3.230989566e-10
3.248213397e-10