/*--------------------------------*- C++ -*----------------------------------*\
| =========                 |                                                 |
| \\      /  F ield         | OpenFOAM: The Open Source CFD Toolbox           |
|  \\    /   O peration     | Version:  5.x                                   |
|   \\  /    A nd           | Web:      www.OpenFOAM.org                      |
|    \\/     M anipulation  |                                                 |
\*---------------------------------------------------------------------------*/
FoamFile
{
    version     2.0;
    format      ascii;
    class       volScalarField;
    location    "0.004";
    object      pSat;
}
// * * * * * * * * * * * * * * * * * * * * * * * * * * * * * * * * * * * * * //

dimensions      [1 -1 -2 0 0 0 0];

internalField   nonuniform List<scalar> 
7950
(
3.82923624e-17
3.930655773e-17
4.163549338e-17
4.544799879e-17
5.1120327e-17
5.926147995e-17
7.082254628e-17
8.728633935e-17
1.109897193e-16
1.456782999e-16
1.974797436e-16
2.766496092e-16
4.007782661e-16
6.008307358e-16
9.328233922e-16
1.501021167e-15
2.505342997e-15
4.34111853e-15
7.815467504e-15
1.463155115e-14
2.850778591e-14
5.785160884e-14
1.223672058e-13
2.699603971e-13
6.215377657e-13
1.494043197e-12
3.750764999e-12
9.835478533e-12
2.693767146e-11
7.7033984e-11
2.298882191e-10
7.153024073e-10
2.317861792e-09
7.809886296e-09
2.73107674e-08
9.889134428e-08
3.697825198e-07
1.423476454e-06
5.621440289e-06
2.268545831e-05
9.315403776e-05
0.0003874531322
0.001624376855
0.006829569434
0.02864559328
0.1192233238
0.4897566184
1.975254375
7.781512409
29.79744948
0.0001211535112
0.0001225615167
0.0001257163033
0.0001306645232
0.0001375937468
0.0001467875442
0.0001586391984
0.0001736780772
0.0001926079114
0.0002163600666
0.0002461672772
0.0002836655611
0.0003310356229
0.0003911999499
0.0004680990068
0.0005670803193
0.0006954501109
0.0008632597182
0.001084433049
0.001378392724
0.001772417692
0.002305079375
0.003031275348
0.004029636901
0.005413476737
0.00734703245
0.01006964731
0.01393187067
0.01944947545
0.02738440524
0.03886617805
0.0555739502
0.08000925675
0.1159037231
0.1688264968
0.2470848849
0.363051208
0.5351014866
0.7904183731
1.168990506
1.729225612
2.555666488
3.769321935
5.541031389
8.107969325
11.79270755
17.02298649
24.34827447
34.44612983
48.10735843
0.2385675003
0.2398299842
0.2426295475
0.2469422143
0.2528297843
0.2603893401
0.2697505382
0.2810777364
0.2945739041
0.3104859167
0.3291111818
0.3508057848
0.3759944198
0.405182308
0.438969662
0.4780689629
0.5233256811
0.5757431463
0.6365121115
0.7070461495
0.7890236969
0.8844379526
0.9956560216
1.125488753
1.27727277
1.454966645
1.663262925
1.907717792
2.194900192
2.532562049
2.929829877
3.397419184
3.947869397
4.595797753
5.358166922
6.25455862
7.30744246
8.542423473
9.988448867
11.67794541
13.64685759
15.93454657
18.58350733
21.63886016
25.14757326
29.15737563
33.71534451
38.86616448
44.6500932
51.10072513
4.346440087
4.357378748
4.381524915
4.418427913
4.468246718
4.531298308
4.608013344
4.698928713
4.804687503
4.926042424
5.063860933
5.21913111
5.392969407
5.586627739
5.801502796
6.039145131
6.301269179
6.589763427
6.906701623
7.254353298
7.635195064
8.051921216
8.507453753
9.004951823
9.547819854
10.13971276
10.78454069
11.48646815
12.2499118
13.07953126
13.98021651
14.95706579
16.0153594
17.16052133
18.39807408
19.73358141
21.17257916
22.72049623
24.3825598
26.16369332
28.06839572
30.10061751
32.26362116
34.55983901
36.99072474
39.55660813
42.25654995
45.08821093
48.04773512
51.12965065
15.39217839
15.41100465
15.45247358
15.5156164
15.60041436
15.70701571
15.83565536
15.98663438
16.16031253
16.35710428
16.57747648
16.82194627
17.09107979
17.38548926
17.70583176
18.05280649
18.42715131
18.82964052
19.26107957
19.72230162
20.21416294
20.73753552
21.29330189
21.88234691
22.50555034
23.16377715
23.85786714
24.58862507
25.3568071
26.16310934
27.0081525
27.89246824
28.81648355
29.78050237
30.78469191
31.82906334
32.9134536
34.03751037
35.20067233
36.40215386
37.64092921
38.91571742
40.22497073
41.56686134
42.93927711
44.33981049
45.76576057
47.21413174
48.68163723
50.16471048
27.38816204
27.40462841
27.44086239
27.4959354
27.56971039
27.66215498
27.77327064
27.90307651
28.05159987
28.21887435
28.40493584
28.6098224
28.83356943
29.07621134
29.33777703
29.61828803
29.91775821
30.23618827
30.57356699
30.92986602
31.30503781
31.69901338
32.11169882
32.54297312
32.99268355
33.4606444
33.94663252
34.45038428
34.97159246
35.5099044
36.06491681
36.63617384
37.2231649
37.82532175
38.4420142
39.07255106
39.71617679
40.37207019
41.03934296
41.71703951
42.40413778
43.09954802
43.80211497
44.51061868
45.22377785
45.94025071
46.65864019
47.37749703
48.09532637
48.81058881
35.55924814
35.569825
35.59308753
35.62841444
35.67568017
35.73481318
35.80575286
35.88843754
35.98279844
36.0887609
36.20623951
36.33514004
36.47535793
36.62677664
36.78926904
36.96269479
37.14690119
37.34172132
37.54697575
37.76246877
37.98799002
38.2233134
38.46819686
38.7223803
38.98558767
39.25752351
39.53787547
39.82631136
40.1224808
40.42601269
40.736519
41.05358934
41.37679536
41.70568886
42.0398024
42.37864907
42.72172374
43.06850201
43.41844423
43.77099206
44.12557231
44.48159672
44.83846294
45.19555725
45.5522547
45.90792052
46.26191315
46.61358378
46.96228129
47.30735032
39.71322677
39.71909306
39.73199183
39.75157171
39.77775324
39.81048273
39.84971064
39.89538198
39.94743709
40.00580769
40.07041861
40.14118761
40.21802229
40.30082463
40.38948601
40.48389123
40.58391537
40.68942641
40.8002835
40.91633616
41.0374274
41.16339096
41.29405251
41.42922881
41.56872889
41.71235476
41.85989863
42.01114556
42.16587427
42.32385481
42.48484982
42.64861582
42.81490299
42.98345345
43.15400568
43.32629075
43.50003529
43.67496191
43.85078755
44.02722603
44.20398851
44.38078303
44.55731552
44.73329096
44.90841238
45.08238468
45.25491211
45.42569951
45.59445569
45.76089044
41.20692126
41.20995092
41.21661166
41.22672005
41.24023298
41.2571189
41.27734848
41.3008876
41.32770032
41.35774491
41.39097521
41.42734165
41.46678767
41.50925465
41.55467737
41.6029864
41.65410908
41.70796641
41.76447647
41.82355139
41.8851012
41.94903032
42.01523893
42.08362493
42.15408085
42.22649626
42.30075722
42.3767467
42.45434454
42.53342684
42.61386796
42.69553891
42.77830835
42.86204355
42.94660932
43.03186851
43.11768246
43.20391255
43.2904171
43.37705544
43.46368591
43.55016633
43.63635506
43.72211103
43.80729323
43.89176178
43.97537905
44.05800754
44.13951313
44.21976197
41.23014894
41.23165983
41.23498081
41.24002096
41.24675718
41.25517292
41.26525332
41.27697971
41.29033263
41.30528976
41.32182648
41.33991582
41.35952842
41.3806326
41.40319325
41.42717436
41.45253649
41.47923828
41.50723686
41.53648591
41.56693809
41.59854403
41.63125184
41.66500802
41.69975703
41.73544271
41.77200676
41.80938878
41.84752767
41.8863607
41.92582493
41.96585523
42.00638526
42.04734997
42.08868107
42.13031104
42.17217161
42.21419478
42.25631131
42.29845269
42.34055018
42.38253479
42.42433881
42.46589376
42.5071335
42.54799062
42.58839952
42.62829644
42.66761691
42.70629881
40.51331709
40.51405725
40.51568475
40.51815454
40.52145509
40.52557881
40.53051718
40.53626124
40.54280061
40.55012494
40.558221
40.56707512
40.57667314
40.58699804
40.59803279
40.60975895
40.62215707
40.63520582
40.64888334
40.6631673
40.67803342
40.69345692
40.70941252
40.72587246
40.74280997
40.76019677
40.77800407
40.79620155
40.81475938
40.83364621
40.8528316
40.87228314
40.89196834
40.91185516
40.93191053
40.95210132
40.97239433
40.99275681
41.01315446
41.03355442
41.05392324
41.07422794
41.09443644
41.11451513
41.13443183
41.15415529
41.1736542
41.1928972
41.21185387
41.23049524
39.44951869
39.44987854
39.45066938
39.45186894
39.45347251
39.45547588
39.45787482
39.46066466
39.46384073
39.46739791
39.47132963
39.4756289
39.48028869
39.48530058
39.49065664
39.49634748
39.50236375
39.50869466
39.51532944
39.52225728
39.52946599
39.53694382
39.54467809
39.55265562
39.56086228
39.56928537
39.57791028
39.58672237
39.59570701
39.6048486
39.61413297
39.62354355
39.63306566
39.64268221
39.65237852
39.66213796
39.67194436
39.68178203
39.6916343
39.70148545
39.71131925
39.72111995
39.73087178
39.74055895
39.75016568
39.7596771
39.76907786
39.77835357
39.78748934
39.79647121
38.23806266
38.23823643
38.23861901
38.23919933
38.2399751
38.24094402
38.24210427
38.24345355
38.24499005
38.24671055
38.24861184
38.25069074
38.25294402
38.25536758
38.25795728
38.26070902
38.26361729
38.2666775
38.26988462
38.27323314
38.27671711
38.28033054
38.28406749
38.28792198
38.29188667
38.29595557
38.30012134
38.30437708
38.30871543
38.31312949
38.3176119
38.32215482
38.32675088
38.33139224
38.33607108
38.34078
38.34551117
38.35025673
38.35500929
38.35976007
38.36450213
38.36922809
38.3739296
38.37859925
38.38322965
38.38781383
38.39234392
38.39681342
38.40121492
38.4055419
36.97693878
36.97702239
36.97720707
36.97748744
36.97786171
36.97832945
36.97888931
36.97954085
36.98028229
36.98111228
36.98202995
36.9830335
36.98412071
36.98529024
36.98654031
36.9878678
36.98927092
36.9907479
36.99229516
36.99391047
36.99559116
36.99733456
36.99913753
37.00099651
37.00290882
37.00487133
37.00688048
37.00893313
37.01102526
37.01315376
37.01531504
37.01750553
37.01972165
37.02195937
37.02421513
37.02648489
37.02876552
37.03105299
37.03334328
37.03563325
37.03791842
37.04019565
37.04246092
37.04471109
37.04694212
37.04915088
37.05133332
37.05348631
37.05560671
37.05769093
35.71336384
35.71340414
35.7134934
35.71362816
35.71380885
35.71403418
35.71430413
35.71461829
35.71497578
35.71537617
35.71581817
35.71630221
35.71682612
35.71738991
35.71799227
35.71863235
35.71930884
35.72002088
35.72076673
35.7215451
35.72235513
35.72319552
35.72406452
35.72496042
35.72588235
35.72682814
35.72779606
35.72878524
35.72979352
35.73081916
35.73186088
35.73291649
35.73398427
35.73506205
35.73614896
35.73724284
35.73834153
35.73944371
35.74054722
35.74164989
35.74275086
35.74384796
35.74493946
35.74602317
35.74709781
35.74816164
35.74921292
35.75024991
35.75127088
35.75227453
34.4696228
34.4696421
34.4696849
34.46974994
34.46983723
34.46994549
34.47007558
34.47022707
34.47039912
34.47059215
34.47080533
34.47103823
34.47129086
34.47156237
34.47185277
34.4721608
34.47248688
34.47282974
34.47318898
34.47356416
34.47395446
34.47435945
34.47477788
34.47520932
34.47565335
34.47610915
34.47657544
34.47705181
34.47753784
34.47803185
34.47853342
34.47904171
34.47955631
34.48007553
34.48059896
34.48112575
34.48165506
34.48218565
34.48271708
34.48324852
34.4837787
34.48430722
34.48483238
34.48535461
34.48587223
34.4863844
34.4868907
34.48738987
34.48788191
34.48836514
33.25588545
33.25589479
33.25591551
33.25594679
33.25598863
33.25604103
33.2561036
33.25617631
33.25625918
33.25635221
33.25645499
33.25656711
33.25668858
33.25681939
33.25695914
33.25710783
33.25726464
33.25742998
33.25760305
33.25778342
33.25797152
33.25816652
33.25836803
33.25857604
33.25878973
33.25900912
33.25923378
33.25946333
33.25969734
33.25993502
33.26017675
33.26042133
33.26066917
33.26091944
33.26117134
33.26142487
33.26168003
33.26193559
33.26219156
33.26244713
33.26270269
33.26295704
33.26321018
33.26346128
33.26371036
33.2639574
33.2642012
33.26444133
33.26467823
33.26491105
32.07647144
32.07647616
32.07648599
32.07650093
32.07652138
32.07654654
32.07657642
32.07661181
32.07665152
32.07669634
32.07674588
32.07679974
32.07685833
32.07692124
32.07698847
32.07706003
32.07713591
32.07721533
32.07729869
32.07738558
32.07747601
32.07756998
32.0776671
32.07776697
32.07786998
32.07797575
32.07808388
32.07819436
32.07830681
32.07842123
32.07853762
32.07865558
32.07877472
32.07889543
32.07901653
32.07913882
32.0792615
32.07938457
32.07950764
32.07963072
32.07975379
32.07987608
32.07999797
32.08011908
32.08023901
32.08035776
32.08047533
32.08059094
32.08070497
32.08081704
30.93289057
30.93289248
30.93289742
30.93290465
30.93291454
30.93292634
30.93294117
30.93295791
30.93297732
30.93299862
30.93302259
30.93304846
30.93307662
30.93310705
30.93313939
30.93317364
30.93321016
30.93324859
30.93328853
30.93333039
30.93337414
30.93341903
30.93346583
30.93351415
30.93356361
30.93361459
30.93366672
30.9337196
30.93377401
30.93382918
30.93388511
30.9339418
30.93399925
30.93405708
30.93411567
30.93417426
30.93423362
30.93429259
30.93435195
30.9344113
30.93447065
30.93452963
30.93458822
30.93464643
30.93470427
30.93476134
30.93481765
30.93487358
30.93492837
30.9349824
29.8253098
29.82531091
29.82531312
29.8253168
29.82532158
29.8253271
29.8253341
29.8253422
29.82535177
29.82536207
29.82537349
29.825386
29.82539962
29.82541398
29.8254298
29.82544637
29.82546367
29.82548208
29.82550159
29.82552183
29.82554281
29.82556453
29.82558699
29.82561018
29.8256341
29.8256584
29.82568343
29.8257092
29.82573533
29.82576184
29.82578871
29.82581595
29.82584356
29.82587153
29.82589951
29.82592785
29.8259562
29.82598491
29.82601325
29.82604197
29.82607031
29.82609866
29.826127
29.82615498
29.82618295
29.82621056
29.82623743
29.82626431
29.82629081
29.82631695
28.75326533
28.75326569
28.75326711
28.75326853
28.75327103
28.75327352
28.75327708
28.753281
28.75328527
28.75329026
28.75329595
28.75330201
28.75330842
28.75331554
28.75332302
28.75333085
28.7533394
28.7533483
28.75335756
28.75336717
28.7533775
28.75338783
28.75339851
28.75340991
28.7534213
28.75343305
28.75344516
28.75345762
28.75347009
28.75348291
28.75349573
28.7535089
28.75352208
28.75353561
28.75354914
28.75356267
28.75357656
28.75359009
28.75360398
28.75361751
28.7536314
28.75364493
28.75365846
28.753672
28.75368553
28.7536987
28.75371188
28.7537247
28.75373752
28.75374998
27.71600134
27.71600169
27.71600238
27.71600306
27.7160041
27.71600548
27.7160072
27.71600892
27.71601099
27.7160134
27.71601615
27.71601925
27.71602235
27.71602545
27.71602924
27.71603303
27.71603716
27.7160413
27.71604577
27.7160506
27.71605542
27.71606059
27.71606575
27.71607092
27.71607643
27.71608229
27.71608814
27.716094
27.71609985
27.71610605
27.71611225
27.7161188
27.716125
27.71613154
27.71613809
27.71614463
27.71615117
27.71615772
27.71616426
27.71617115
27.7161777
27.71618424
27.71619079
27.71619733
27.71620353
27.71621007
27.71621627
27.71622247
27.71622867
27.71623453
26.71263656
26.71263656
26.7126369
26.71263723
26.7126379
26.71263856
26.71263923
26.71264023
26.71264123
26.71264223
26.71264356
26.71264489
26.71264656
26.71264822
26.71264989
26.71265155
26.71265355
26.71265555
26.71265788
26.71266021
26.71266255
26.71266488
26.71266721
26.71266988
26.71267254
26.71267521
26.7126782
26.71268087
26.71268387
26.71268686
26.71268986
26.71269286
26.71269586
26.71269919
26.71270219
26.71270552
26.71270852
26.71271185
26.71271485
26.71271818
26.71272118
26.71272451
26.71272751
26.71273084
26.71273384
26.71273683
26.71273983
26.71274283
26.71274583
26.71274883
25.7422408
25.7422408
25.7422408
25.74224112
25.74224144
25.74224176
25.74224209
25.74224241
25.74224305
25.7422437
25.74224434
25.74224499
25.74224563
25.74224627
25.74224724
25.74224821
25.74224917
25.74225014
25.74225111
25.74225207
25.74225336
25.74225433
25.74225562
25.74225691
25.74225819
25.74225948
25.74226077
25.74226206
25.74226367
25.74226496
25.74226657
25.74226786
25.74226947
25.74227076
25.74227237
25.74227398
25.74227559
25.74227688
25.74227849
25.7422801
25.74228171
25.742283
25.74228461
25.74228622
25.74228751
25.74228912
25.74229073
25.74229202
25.74229363
25.74229492
24.80387496
24.80387496
24.80387496
24.80387527
24.80387527
24.80387527
24.80387558
24.80387589
24.80387589
24.8038762
24.80387651
24.80387682
24.80387714
24.80387776
24.80387807
24.80387838
24.803879
24.80387932
24.80387994
24.80388025
24.80388087
24.8038815
24.80388212
24.80388274
24.80388337
24.80388399
24.80388461
24.80388523
24.80388586
24.80388648
24.80388741
24.80388804
24.80388866
24.80388928
24.80389022
24.80389084
24.80389146
24.8038924
24.80389302
24.80389364
24.80389458
24.8038952
24.80389582
24.80389676
24.80389738
24.803898
24.80389894
24.80389956
24.80390019
24.80390081
23.8966073
23.8966073
23.8966073
23.8966073
23.8966076
23.8966076
23.8966076
23.8966079
23.8966079
23.8966079
23.8966082
23.8966082
23.8966085
23.8966085
23.8966088
23.89660911
23.89660941
23.89660941
23.89660971
23.89661001
23.89661031
23.89661061
23.89661091
23.89661121
23.89661151
23.89661182
23.89661212
23.89661242
23.89661272
23.89661302
23.89661332
23.89661362
23.89661392
23.89661423
23.89661453
23.89661513
23.89661543
23.89661573
23.89661603
23.89661633
23.89661663
23.89661724
23.89661754
23.89661784
23.89661814
23.89661844
23.89661874
23.89661904
23.89661934
23.89661965
23.01952265
23.01952265
23.01952265
23.01952265
23.01952265
23.01952294
23.01952294
23.01952294
23.01952294
23.01952294
23.01952294
23.01952323
23.01952323
23.01952323
23.01952352
23.01952352
23.01952352
23.01952381
23.01952381
23.01952381
23.0195241
23.0195241
23.01952439
23.01952439
23.01952468
23.01952468
23.01952497
23.01952497
23.01952527
23.01952527
23.01952556
23.01952585
23.01952585
23.01952614
23.01952614
23.01952643
23.01952643
23.01952672
23.01952701
23.01952701
23.0195273
23.0195273
23.01952759
23.01952759
23.01952788
23.01952818
23.01952818
23.01952847
23.01952847
23.01952876
22.17172561
22.17172561
22.17172561
22.17172561
22.17172561
22.17172561
22.17172561
22.17172561
22.17172561
22.17172561
22.17172561
22.17172561
22.17172561
22.17172589
22.17172589
22.17172589
22.17172589
22.17172589
22.17172617
22.17172617
22.17172617
22.17172617
22.17172617
22.17172645
22.17172645
22.17172645
22.17172645
22.17172673
22.17172673
22.17172673
22.17172673
22.17172701
22.17172701
22.17172701
22.1717273
22.1717273
22.1717273
22.1717273
22.17172758
22.17172758
22.17172758
22.17172786
22.17172786
22.17172786
22.17172786
22.17172814
22.17172814
22.17172814
22.17172842
22.17172842
21.35234194
21.35234194
21.35234194
21.35234194
21.35234194
21.35234194
21.35234194
21.35234194
21.35234194
21.35234194
21.35234194
21.35234194
21.35234194
21.35234194
21.35234194
21.35234194
21.35234194
21.35234221
21.35234221
21.35234221
21.35234221
21.35234221
21.35234221
21.35234221
21.35234221
21.35234221
21.35234248
21.35234248
21.35234248
21.35234248
21.35234248
21.35234248
21.35234248
21.35234275
21.35234275
21.35234275
21.35234275
21.35234275
21.35234275
21.35234275
21.35234302
21.35234302
21.35234302
21.35234302
21.35234302
21.35234302
21.3523433
21.3523433
21.3523433
21.3523433
20.56051976
20.56051976
20.56051976
20.56051976
20.56051976
20.56051976
20.56051976
20.56051976
20.56051976
20.56051976
20.56051976
20.56051976
20.56051976
20.56051976
20.56051976
20.56051976
20.56051976
20.56051976
20.56052002
20.56052002
20.56052002
20.56052002
20.56052002
20.56052002
20.56052002
20.56052002
20.56052002
20.56052002
20.56052002
20.56052002
20.56052002
20.56052002
20.56052002
20.56052028
20.56052028
20.56052028
20.56052028
20.56052028
20.56052028
20.56052028
20.56052028
20.56052028
20.56052028
20.56052028
20.56052028
20.56052055
20.56052055
20.56052055
20.56052055
20.56052055
19.7954293
19.7954293
19.7954293
19.7954293
19.7954293
19.7954293
19.7954293
19.7954293
19.7954293
19.7954293
19.7954293
19.7954293
19.7954293
19.7954293
19.7954293
19.7954293
19.7954293
19.7954293
19.7954293
19.7954293
19.7954293
19.7954293
19.7954293
19.7954293
19.7954293
19.79542955
19.79542955
19.79542955
19.79542955
19.79542955
19.79542955
19.79542955
19.79542955
19.79542955
19.79542955
19.79542955
19.79542955
19.79542955
19.79542955
19.79542955
19.79542955
19.79542955
19.79542955
19.79542955
19.79542955
19.79542955
19.79542955
19.79542955
19.79542955
19.79542955
19.05626228
19.05626228
19.05626228
19.05626228
19.05626228
19.05626228
19.05626228
19.05626228
19.05626228
19.05626228
19.05626228
19.05626228
19.05626228
19.05626228
19.05626228
19.05626228
19.05626228
19.05626228
19.05626228
19.05626228
19.05626228
19.05626228
19.05626228
19.05626228
19.05626228
19.05626228
19.05626228
19.05626228
19.05626228
19.05626228
19.05626228
19.05626228
19.05626228
19.05626228
19.05626228
19.05626228
19.05626228
19.05626228
19.05626228
19.05626228
19.05626228
19.05626228
19.05626228
19.05626228
19.05626228
19.05626228
19.05626228
19.05626228
19.05626228
19.05626228
18.34223139
18.34223139
18.34223139
18.34223139
18.34223139
18.34223139
18.34223139
18.34223139
18.34223139
18.34223139
18.34223139
18.34223139
18.34223139
18.34223139
18.34223139
18.34223139
18.34223139
18.34223139
18.34223139
18.34223139
18.34223139
18.34223139
18.34223139
18.34223139
18.34223139
18.34223139
18.34223139
18.34223139
18.34223139
18.34223139
18.34223139
18.34223139
18.34223139
18.34223139
18.34223139
18.34223139
18.34223139
18.34223139
18.34223139
18.34223139
18.34223139
18.34223139
18.34223139
18.34223139
18.34223139
18.34223139
18.34223139
18.34223139
18.34223139
18.34223139
17.65257066
17.65257066
17.65257066
17.65257066
17.65257066
17.65257066
17.65257066
17.65257066
17.65257066
17.65257066
17.65257066
17.65257066
17.65257066
17.65257066
17.65257066
17.65257066
17.65257066
17.65257066
17.65257066
17.65257066
17.65257066
17.65257066
17.65257066
17.65257066
17.65257066
17.65257066
17.65257066
17.65257066
17.65257066
17.65257066
17.65257066
17.65257066
17.65257066
17.65257066
17.65257066
17.65257066
17.65257066
17.65257066
17.65257066
17.65257066
17.65257066
17.65257066
17.65257066
17.65257066
17.65257066
17.65257066
17.65257066
17.65257066
17.65257066
17.65257066
16.9865344
16.9865344
16.9865344
16.9865344
16.9865344
16.9865344
16.9865344
16.9865344
16.9865344
16.9865344
16.9865344
16.9865344
16.9865344
16.9865344
16.9865344
16.9865344
16.9865344
16.9865344
16.9865344
16.9865344
16.9865344
16.9865344
16.9865344
16.9865344
16.9865344
16.9865344
16.9865344
16.9865344
16.9865344
16.9865344
16.9865344
16.9865344
16.9865344
16.9865344
16.9865344
16.9865344
16.9865344
16.9865344
16.9865344
16.9865344
16.9865344
16.9865344
16.9865344
16.9865344
16.9865344
16.9865344
16.9865344
16.9865344
16.9865344
16.9865344
16.34339685
16.34339685
16.34339685
16.34339685
16.34339685
16.34339685
16.34339685
16.34339685
16.34339685
16.34339685
16.34339685
16.34339685
16.34339685
16.34339685
16.34339685
16.34339685
16.34339685
16.34339685
16.34339685
16.34339685
16.34339685
16.34339685
16.34339685
16.34339685
16.34339685
16.34339685
16.34339685
16.34339685
16.34339685
16.34339685
16.34339685
16.34339685
16.34339685
16.34339685
16.34339685
16.34339685
16.34339685
16.34339685
16.34339685
16.34339685
16.34339685
16.34339685
16.34339685
16.34339685
16.34339685
16.34339685
16.34339685
16.34339685
16.34339685
16.34339685
15.72245185
15.72245185
15.72245185
15.72245185
15.72245185
15.72245185
15.72245185
15.72245185
15.72245185
15.72245185
15.72245185
15.72245185
15.72245185
15.72245185
15.72245185
15.72245185
15.72245185
15.72245185
15.72245185
15.72245185
15.72245185
15.72245185
15.72245185
15.72245185
15.72245185
15.72245185
15.72245185
15.72245185
15.72245185
15.72245185
15.72245185
15.72245185
15.72245185
15.72245185
15.72245185
15.72245185
15.72245185
15.72245185
15.72245185
15.72245185
15.72245185
15.72245185
15.72245185
15.72245185
15.72245185
15.72245185
15.72245185
15.72245185
15.72245185
15.72245185
15.12301208
15.12301208
15.12301208
15.12301208
15.12301208
15.12301208
15.12301208
15.12301208
15.12301208
15.12301208
15.12301208
15.12301208
15.12301208
15.12301208
15.12301208
15.12301208
15.12301208
15.12301208
15.12301208
15.12301208
15.12301208
15.12301208
15.12301208
15.12301208
15.12301208
15.12301208
15.12301208
15.12301208
15.12301208
15.12301208
15.12301208
15.12301208
15.12301208
15.12301208
15.12301208
15.12301208
15.12301208
15.12301208
15.12301208
15.12301208
15.12301208
15.12301208
15.12301208
15.12301208
15.12301208
15.12301208
15.12301208
15.12301208
15.12301208
15.12301208
14.54440955
14.54440955
14.54440955
14.54440955
14.54440955
14.54440955
14.54440955
14.54440955
14.54440955
14.54440955
14.54440955
14.54440955
14.54440955
14.54440955
14.54440955
14.54440955
14.54440955
14.54440955
14.54440955
14.54440955
14.54440955
14.54440955
14.54440955
14.54440955
14.54440955
14.54440955
14.54440955
14.54440955
14.54440955
14.54440955
14.54440955
14.54440955
14.54440955
14.54440955
14.54440955
14.54440955
14.54440955
14.54440955
14.54440955
14.54440955
14.54440955
14.54440955
14.54440955
14.54440955
14.54440955
14.54440955
14.54440955
14.54440955
14.54440955
14.54440955
13.98599381
13.98599381
13.98599381
13.98599381
13.98599381
13.98599381
13.98599381
13.98599381
13.98599381
13.98599381
13.98599381
13.98599381
13.98599381
13.98599381
13.98599381
13.98599381
13.98599381
13.98599381
13.98599381
13.98599381
13.98599381
13.98599381
13.98599381
13.98599381
13.98599381
13.98599381
13.98599381
13.98599381
13.98599381
13.98599381
13.98599381
13.98599381
13.98599381
13.98599381
13.98599381
13.98599381
13.98599381
13.98599381
13.98599381
13.98599381
13.98599381
13.98599381
13.98599381
13.98599381
13.98599381
13.98599381
13.98599381
13.98599381
13.98599381
13.98599381
13.44713252
13.44713252
13.44713252
13.44713252
13.44713252
13.44713252
13.44713252
13.44713252
13.44713252
13.44713252
13.44713252
13.44713252
13.44713252
13.44713252
13.44713252
13.44713252
13.44713252
13.44713252
13.44713252
13.44713252
13.44713252
13.44713252
13.44713252
13.44713252
13.44713252
13.44713252
13.44713252
13.44713252
13.44713252
13.44713252
13.44713252
13.44713252
13.44713252
13.44713252
13.44713252
13.44713252
13.44713252
13.44713252
13.44713252
13.44713252
13.44713252
13.44713252
13.44713252
13.44713252
13.44713252
13.44713252
13.44713252
13.44713252
13.44713252
13.44713252
12.92721065
12.92721065
12.92721065
12.92721065
12.92721065
12.92721065
12.92721065
12.92721065
12.92721065
12.92721065
12.92721065
12.92721065
12.92721065
12.92721065
12.92721065
12.92721065
12.92721065
12.92721065
12.92721065
12.92721065
12.92721065
12.92721065
12.92721065
12.92721065
12.92721065
12.92721065
12.92721065
12.92721065
12.92721065
12.92721065
12.92721065
12.92721065
12.92721065
12.92721065
12.92721065
12.92721065
12.92721065
12.92721065
12.92721065
12.92721065
12.92721065
12.92721065
12.92721065
12.92721065
12.92721065
12.92721065
12.92721065
12.92721065
12.92721065
12.92721065
12.42563022
12.42563022
12.42563022
12.42563022
12.42563022
12.42563022
12.42563022
12.42563022
12.42563022
12.42563022
12.42563022
12.42563022
12.42563022
12.42563022
12.42563022
12.42563022
12.42563022
12.42563022
12.42563022
12.42563022
12.42563022
12.42563022
12.42563022
12.42563022
12.42563022
12.42563022
12.42563022
12.42563022
12.42563022
12.42563022
12.42563022
12.42563022
12.42563022
12.42563022
12.42563022
12.42563022
12.42563022
12.42563022
12.42563022
12.42563022
12.42563022
12.42563022
12.42563022
12.42563022
12.42563022
12.42563022
12.42563022
12.42563022
12.42563022
12.42563022
11.94180983
11.94180983
11.94180983
11.94180983
11.94180983
11.94180983
11.94180983
11.94180983
11.94180983
11.94180983
11.94180983
11.94180983
11.94180983
11.94180983
11.94180983
11.94180983
11.94180983
11.94180983
11.94180983
11.94180983
11.94180983
11.94180983
11.94180983
11.94180983
11.94180983
11.94180983
11.94180983
11.94180983
11.94180983
11.94180983
11.94180983
11.94180983
11.94180983
11.94180983
11.94180983
11.94180983
11.94180983
11.94180983
11.94180983
11.94180983
11.94180983
11.94180983
11.94180983
11.94180983
11.94180983
11.94180983
11.94180983
11.94180983
11.94180983
11.94180983
11.47518408
11.47518408
11.47518408
11.47518408
11.47518408
11.47518408
11.47518408
11.47518408
11.47518408
11.47518408
11.47518408
11.47518408
11.47518408
11.47518408
11.47518408
11.47518408
11.47518408
11.47518408
11.47518408
11.47518408
11.47518408
11.47518408
11.47518408
11.47518408
11.47518408
11.47518408
11.47518408
11.47518408
11.47518408
11.47518408
11.47518408
11.47518408
11.47518408
11.47518408
11.47518408
11.47518408
11.47518408
11.47518408
11.47518408
11.47518408
11.47518408
11.47518408
11.47518408
11.47518408
11.47518408
11.47518408
11.47518408
11.47518408
11.47518408
11.47518408
11.02520395
11.02520395
11.02520395
11.02520395
11.02520395
11.02520395
11.02520395
11.02520395
11.02520395
11.02520395
11.02520395
11.02520395
11.02520395
11.02520395
11.02520395
11.02520395
11.02520395
11.02520395
11.02520395
11.02520395
11.02520395
11.02520395
11.02520395
11.02520395
11.02520395
11.02520395
11.02520395
11.02520395
11.02520395
11.02520395
11.02520395
11.02520395
11.02520395
11.02520395
11.02520395
11.02520395
11.02520395
11.02520395
11.02520395
11.02520395
11.02520395
11.02520395
11.02520395
11.02520395
11.02520395
11.02520395
11.02520395
11.02520395
11.02520395
11.02520395
10.59133529
10.59133529
10.59133529
10.59133529
10.59133529
10.59133529
10.59133529
10.59133529
10.59133529
10.59133529
10.59133529
10.59133529
10.59133529
10.59133529
10.59133529
10.59133529
10.59133529
10.59133529
10.59133529
10.59133529
10.59133529
10.59133529
10.59133529
10.59133529
10.59133529
10.59133529
10.59133529
10.59133529
10.59133529
10.59133529
10.59133529
10.59133529
10.59133529
10.59133529
10.59133529
10.59133529
10.59133529
10.59133529
10.59133529
10.59133529
10.59133529
10.59133529
10.59133529
10.59133529
10.59133529
10.59133529
10.59133529
10.59133529
10.59133529
10.59133529
10.17305927
10.17305927
10.17305927
10.17305927
10.17305927
10.17305927
10.17305927
10.17305927
10.17305927
10.17305927
10.17305927
10.17305927
10.17305927
10.17305927
10.17305927
10.17305927
10.17305927
10.17305927
10.17305927
10.17305927
10.17305927
10.17305927
10.17305927
10.17305927
10.17305927
10.17305927
10.17305927
10.17305927
10.17305927
10.17305927
10.17305927
10.17305927
10.17305927
10.17305927
10.17305927
10.17305927
10.17305927
10.17305927
10.17305927
10.17305927
10.17305927
10.17305927
10.17305927
10.17305927
10.17305927
10.17305927
10.17305927
10.17305927
10.17305927
10.17305927
9.769871694
9.769871694
9.769871694
9.769871694
9.769871694
9.769871694
9.769871694
9.769871694
9.769871694
9.769871694
9.769871694
9.769871694
9.769871694
9.769871694
9.769871694
9.769871694
9.769871694
9.769871694
9.769871694
9.769871694
9.769871694
9.769871694