/*--------------------------------*- C++ -*----------------------------------*\
| =========                 |                                                 |
| \\      /  F ield         | OpenFOAM: The Open Source CFD Toolbox           |
|  \\    /   O peration     | Version:  5.x                                   |
|   \\  /    A nd           | Web:      www.OpenFOAM.org                      |
|    \\/     M anipulation  |                                                 |
\*---------------------------------------------------------------------------*/
FoamFile
{
    version     2.0;
    format      ascii;
    class       volScalarField;
    location    "0.004";
    object      S;
}
// * * * * * * * * * * * * * * * * * * * * * * * * * * * * * * * * * * * * * //

dimensions      [0 0 0 0 0 0 0];

internalField   nonuniform List<scalar> 
7950
(
9.739583079e+19
9.522332395e+19
8.969645678e+19
8.192149303e+19
7.255769806e+19
6.232560093e+19
5.191196108e+19
4.191238748e+19
3.278766052e+19
2.484046874e+19
1.821593505e+19
1.292178054e+19
8.861099809e+18
5.870065356e+18
3.753764739e+18
2.315394212e+18
1.376484272e+18
7.880511887e+17
4.341316717e+17
2.299446924e+17
1.170096032e+17
5.716030562e+16
2.678839132e+16
1.203694431e+16
5.183057893e+15
2.13793084e+15
8.445845e+14
3.195341714e+14
1.157953348e+14
4.021094316e+13
1.338978756e+13
4.279641687e+12
1.314695261e+12
3.88834883e+11
1.109319026e+11
3.060344279e+10
8191415387
2133054686
542284818.8
135215037.9
33204233.93
8068546.724
1949921.871
471121.0624
114415.3407
28082.99463
7003.261739
1783.340751
467.1905124
128.3639835
56225217.56
55511123.24
53815971.12
51555457.71
48736097.01
45455058.23
41831380.56
37986049.09
34037212.61
30095592.24
26259587.76
22611507.61
19215530.6
16117070.41
13343383.08
10905204.74
8799111.799
7010327.384
5515677.473
4286451.809
3290964.765
2496729.074
1872194.701
1388006.145
1017736.66
738308.0052
530114.0087
376896.515
265462.312
185324.6439
128309.4603
88153.9263
60142.47581
40775.45588
27490.07682
18444.63993
12332.31181
8216.962148
5462.608139
3629.681169
2411.554332
1603.896961
1069.070732
714.92013
480.1304337
324.0260472
219.678386
149.4929857
102.1858377
67.17196091
36490.24819
36230.61585
35589.50741
34784.77236
33780.55674
32591.14939
31240.45949
29753.12563
28154.83288
26472.30775
24732.49357
22961.64828
21184.70414
19424.72531
17702.45896
16036.0066
14440.60362
12928.52035
11509.07317
10188.72206
8971.234683
7857.920298
6847.981315
5938.896031
5126.622625
4405.93361
3770.78768
3214.61164
2730.527248
2311.587538
1950.983781
1642.163337
1378.959233
1155.604236
966.7603367
807.7198873
674.3090915
562.4044488
468.9400379
391.2119488
326.5159707
272.7511091
228.1131292
191.0530177
160.2500266
134.559874
112.9682365
94.64107798
79.01907842
62.82212762
2223.831141
2207.975294
2177.960723
2145.98489
2107.676222
2062.744379
2011.694565
1955.019207
1893.237921
1826.948206
1756.807762
1683.500713
1607.640639
1529.978002
1451.1694
1371.809624
1292.574353
1214.018679
1136.675432
1061.029982
987.506373
916.4623543
848.2058617
783.0003096
721.0505564
662.4654579
607.2418388
555.6119909
507.496341
462.698347
421.2589762
383.054131
347.9400844
315.7623256
286.3501974
259.5446145
235.1710204
212.9862706
192.8820448
174.7263148
158.2946292
143.4351938
129.9948283
117.8140882
106.7219017
96.50929093
86.90042387
77.61740536
68.36755517
54.41110546
657.2672548
653.1195007
645.8233427
638.713334
630.4909666
621.0156991
610.3547067
598.5630958
585.6988487
571.8379746
557.0703655
541.4901455
525.1814478
508.2634564
490.8353131
472.9924354
454.8552763
436.5230156
418.0988482
399.6830098
381.3690925
363.2436055
345.3902112
327.889167
310.809846
294.1997006
278.0936461
262.5938126
247.7021631
233.3989938
219.7457184
206.7471952
194.4025043
182.706827
171.6494492
161.2218423
151.4020177
142.1407996
133.4496956
125.3183216
117.6833428
110.5150876
103.7754505
97.41293362
91.35557812
85.48728835
79.61816124
73.52117857
66.8448452
55.08839564
374.7846659
372.0623527
368.0338004
364.4827478
360.5505687
356.1171198
351.1994695
345.8079727
339.9545055
333.6615021
326.9582386
319.8749608
312.4397588
304.6957579
296.676963
288.4186763
279.9671627
271.3604118
262.6395674
253.8465375
245.0235094
236.2046128
227.4037953
218.7104117
210.1448346
201.6873257
193.3990242
185.3244076
177.4599024
169.8049576
162.3967
155.2430204
148.3493956
141.7195827
135.3548629
129.2566214
123.4164256
117.8150193
112.468981
107.3757071
102.4987676
97.82218743
93.32032012
88.95193359
84.64975389
80.29130548
75.66026341
70.47541146
64.24492313
51.52038568
289.1702795
287.0633012
284.0764603
281.5145874
278.7324689
275.6394917
272.243745
268.5480012
264.5565083
260.2810192
255.7376489
250.9427866
245.9125854
240.6721575
235.2407808
229.6397887
223.8969552
218.0352511
212.080109
206.0577149
199.9937795
193.908156
187.8152399
181.7717736
175.7862136
169.8496855
164.0061122
158.2831994
152.6777995
147.1933668
141.8561738
136.6725107
131.6471968
126.7839646
122.0849955
117.5516988
113.1777504
108.9521799
104.8894938
100.9866964
97.21539084
93.56246694
90.00531432
86.50581476
82.9994194
79.36724117
75.39887077
70.80907432
65.062095
52.61940357
257.3856853
255.3428508
252.6406239
250.3864543
247.9798586
245.3326776
242.4487525
239.3276996
235.9711911
232.3879166
228.5900699
224.5899368
220.400437
216.0407303
211.5257216
206.872567
202.1027231
197.2342591
192.2876803
187.2852905
182.2454735
177.1693476
172.1008567
167.0752681
162.0725988
157.1106606
152.2213794
147.4228246
142.7125031
138.0956169
133.5926088
129.2084268
124.9468972
120.8109427
116.8021766
112.9208281
109.1607139
105.5141304
101.992575
98.59073127
95.28262681
92.05396167
88.88010568
85.71949108
82.50096115
79.09253901
75.25910166
70.67615149
64.71861234
51.29647287
245.9145851
243.9304809
241.3522422
239.2016232
236.916729
234.4164149
231.7036387
228.7775597
225.6396587
222.2978779
218.7631736
215.0466
211.160255
207.1211331
202.9427935
198.6410946
194.235145
189.7414619
185.1787201
180.5665223
175.9198212
171.24343
166.5770602
161.947335
157.3387218
152.7692885
148.2669453
143.8458339
139.5040505
135.2476976
131.0940842
127.0474091
123.1108926
119.2869087
115.5765948
111.9793728
108.4891619
105.1000422
101.8216772
98.64742789
95.55281015
92.52318581
89.53346126
86.54135913
83.47445006
80.19949436
76.48123807
71.98976791
66.07969347
52.46681105
243.167412
241.1130018
238.5202683
236.3682199
234.0935355
231.61402
228.9315977
226.0448335
222.9551969
219.6706752
216.2020229
212.560154
208.7572651
204.8096651
200.7307523
196.5361779
192.2441468
187.8709966
183.4360787
178.9574496
174.4375781
169.9036048
165.3894283
160.899471
156.4352942
152.0129217
147.6568534
143.3789998
139.1780645
135.0607189
131.0422248
127.1262691
123.3155667
119.6119891
116.0161675
112.5267724
109.1375845
105.8435268
102.6525647
99.55653264
96.5311393
93.56041038
90.61724475
87.65631063
84.6000342
81.30583062
77.52185701
72.89384798
66.71977545
52.34538591
244.7287054
242.6351323
240.0136587
237.8284541
235.5202667
233.0085957
230.2953573
227.3792904
224.2622997
220.9527001
217.4614471
213.7997106
209.9801082
206.0189002
201.9297454
197.7285629
193.4334659
189.0610308
184.6304269
180.1584716
175.6492751
171.1306694
166.6341369
162.1632958
157.7209124
153.323549
148.9943122
144.7437654
140.5710747
136.4831438
132.494202
128.6077409
124.8259977
121.1505967
117.5818578
114.1179764
110.7527135
107.4816056
104.3116052
101.233654
98.22371073
95.26524178
92.33031949
89.3724053
86.31207007
83.00418821
79.19419885
74.52120484
68.26069935
53.58636678
248.4088403
246.2294264
243.5387128
241.2952301
238.9292511
236.3585716
233.5847716
230.6064879
227.4259807
224.0520228
220.4959609
216.7694321
212.8856209
208.8610339
204.7097924
200.4482032
196.094689
191.6671831
187.1850434
182.6561051
178.099634
173.5422595
169.0016136
164.4907792
160.0116662
155.5807067
151.2202204
146.9403825
142.7406706
138.6236384
134.6109519
130.7047389
126.8992933
123.2019616
119.6120319
116.1266373
112.7393636
109.446029
106.2526341
103.1490769
100.1110151
97.12157931
94.15028497
91.14825948
88.03352367
84.65315811
80.74083536
75.91899208
69.42437192
54.14777235
253.2993948
251.0593529
248.3044861
245.9994177
243.5681114
240.9282103
238.0814131
235.0265759
231.7663873
228.3100969
224.6694919
220.8566975
216.8854849
212.7727441
208.5331228
204.1834665
199.7426321
195.2290414
190.6618921
186.0495103
181.4121226
176.7765493
172.1601012
167.5754802
163.0254444
158.5267643
154.1014005
149.7590591
145.4991309
141.3251151
137.2578507
133.2989698
129.4431814
125.6974151
122.0607164
118.5299051
115.0984723
111.7624431
108.5272378
105.3821156
102.3025666
99.27111298
96.25644493
93.20842679
90.04297902
86.60398951
82.62070091
77.70764962
71.07840554
55.45335008
258.8516873
256.5304638
253.6963191
251.3223434
248.8196628
246.1041094
243.1772874
240.0381239
236.6895959
233.1414744
229.4059651
225.4957494
221.4251882
217.2115608
212.8701129
208.4189398
203.8775614
199.2585689
194.5914578
189.8839583
185.1472798
180.4164423
175.707597
171.0326133
166.3951389
161.8084351
157.3012164
152.8818852
148.5432912
144.2948238
140.1559362
136.1275386
132.2045559
128.3936212
124.6935618
121.1009176
117.6090314
114.2140095
110.9207702
107.717887
104.5804191
101.4900651
98.41423004
95.30092207
92.06300749
88.53874695
84.44789426
79.39191613
72.55448657
56.41061399
264.8660497
262.4793196
259.5712928
257.1297595
254.5552789
251.7626775
248.7536741
245.5273589
242.0870509
238.4429684
234.607789
230.5946845
226.4185885
222.097262
217.6465161
213.0850293
208.4326859
203.7027539
198.9248177
194.1071275
189.2618374
184.4240366
179.6101659
174.8321114
170.0938058
165.4093361
160.8072516
156.2955067
151.867301
147.5324571
143.3101051
139.2008917
135.199896
131.3135571
127.5405252
123.8771148
120.3165506
116.8549967
113.4970548
110.2307876
107.0308736
103.8784308
100.7399952
97.56223879
94.25580183
90.65528416
86.47483421
81.30696763
74.31160209
57.78679895
271.1896135
268.7267957
265.73773
263.2257877
260.5775502
257.7059353
254.6126321
251.2967883
247.7619804
244.0188908
240.0806771
235.961359
231.6767584
227.2405727
222.675734
218.001774
213.2326094
208.3860075
203.4911435
198.5576074
193.5982632
188.644851
183.7197399
178.8341862
173.9872089
169.1977502
164.4936888
159.8822829
155.3570298
150.928119
146.614519
142.4166768
138.3297672
134.3601068
130.5061978
126.7641411
123.1270161
119.5909855
116.1603722
112.8227085
109.552152
106.3291221
103.1190808
99.86701194
96.48074812
92.78985312
88.49998279
83.19213705
76.00019012
58.99179346
277.7872247
275.2570561
272.1899173
269.6086322
266.8868536
263.9359769
260.7578093
257.3516056
253.7212059
249.8776954
245.8346681
241.6066231
237.2098481
232.6584958
227.9761369
223.1828221
218.2927699
213.324536
208.3077308
203.2522361
198.1716933
193.0984504
188.0551762
183.0531013
178.0916501
173.1903714
168.3772717
163.6594171
159.0304548
154.5009155
150.0897451
145.7972391
141.6186123
137.5601185
133.6201359
129.7945831
126.0763959
122.4617313
118.9547465
115.542525
112.1987214
108.9031883
105.620481
102.2941799
98.82976679
95.0527651
90.66235476
85.22969463
77.86428463
60.44608988
284.6143376
282.010433
278.8607704
276.2084961
273.4124019
270.3799429
267.1152665
263.6181744
259.8900112
255.9438814
251.793792
247.4544953
242.9428968
238.2739313
233.4709413
228.5551267
223.5398942
218.4470304
213.3062582
208.1248281
202.9194409
197.7227551
192.5574661
187.4347851
182.3545465
177.3368264
172.4098751
167.5806624
162.8429267
158.207529
153.6935134
149.3010623
145.0254013
140.8727658
136.8414237
132.9271184
129.1226327
125.4240726
121.835463
118.3434264
114.921023
111.5474674
108.1862842
104.7794422
101.2297266
97.35779847
92.85461874
87.28005031
79.71865409
61.82392865
291.673628
289.0004491
285.7692119
283.0458459
280.1744689
277.0605874
273.7084894
270.1180843
266.2908281
262.2402428
257.980756
253.527584
248.8981106
244.1078181
239.1807016
234.1384755
228.9950761
223.7730028
218.5024512
213.1910131
207.8560468
202.5308763
197.2385592
191.9903893
186.7864619
181.6474121
176.6018261
171.6566172
166.8055597
162.0598381
157.4386599
152.9421086
148.5653874
144.3147525
140.1883643
136.1818145
132.2877187
128.502142
124.8290339
121.254598
117.7513102
114.297811
110.8566871
107.3684278
103.7333493
99.767749
95.15537774
89.44543563
81.69762443
63.36360828
298.952766
296.2055716
292.8895369
290.0934846
287.1452462
283.9481139
280.5068144
276.8217936
272.8937923
268.7369249
264.3662398
259.7973378
255.0480685
250.1344353
245.0810594
239.9101728
234.6361767
229.2821044
223.8787688
218.4340242
212.9658553
207.5082735
202.0847829
196.7068228
191.3746867
186.1095985
180.9405849
175.874557
170.9053045
166.0443279
161.311085
156.7055932
152.22301
147.8696394
143.643556
139.5401964
135.5520057
131.6749736
127.9130018
124.2518619
120.6633817
117.1255712
113.5999819
110.0254919
106.2996981
102.233945
97.5036466
91.64639045
83.69661961
64.87592173
306.4610717
303.6413981
300.2395092
297.3693055
294.3426517
291.0607201
287.5283868
283.746159
279.714921
275.4492003
270.96449
266.2768566
261.4046358
256.364336
251.1812277
245.8780616
240.4696875
234.9798017
229.4397967
223.8578051
218.252395
212.6583306
207.0995783
201.5877459
196.1233051
190.7280481
185.4315102
180.2406428
175.1492064
170.1690212
165.3198509
160.6016553
156.0095351
151.5498707
147.2206559
143.0171849
138.9317241
134.9601987
131.1064976
127.3559883
123.6798361
120.0554679
116.4434459
112.7810879
108.9633855
104.7969987
99.94947169
93.94694329
85.79829333
66.50799211
314.1999088
311.304788
307.8143813
304.8686733
301.7624341
298.3944188
294.7696155
290.8885613
286.7522336
282.3755758
277.7745061
272.965544
267.9675204
262.7974362
257.4812066
252.0421461
246.4955504
240.8657799
235.1848852
229.4612938
223.7141374
217.9789792
212.2803134
206.6299567
201.0285104
195.4983452
190.0695801
184.7492375
179.5310126
174.4270479
169.457459
164.6221638
159.9161836
155.3459871
150.9094953
146.601858
142.4151446
138.3451959
134.3959135
130.5522321
126.7846097
123.0698533
119.3674607
115.6130707
111.6988875
107.4264521
102.4546166
96.29730364
87.93709962
68.14085649
322.178906
319.2083747
315.6279238
312.6052567
309.4177337
305.9617042
302.2423003
298.2600893
294.016144
289.5258228
284.8054778
279.8720893
274.7449815
269.4416517
263.9886941
258.4099947
252.7212934
246.9476185
241.1217339
235.2523384
229.359128
223.4785154
217.6355451
211.8422675
206.0994007
200.4299057
194.8645322
189.4104087
184.0611384
178.8291938
173.7350901
168.7787117
163.9549846
159.2704956
154.7230948
150.3077872
146.0164519
141.8448381
137.7968879
133.8571199
129.9952722
126.18754
122.3923827
118.5437878
114.5312045
110.15117
105.0540421
98.74149628
90.16953548
69.87242102
330.4022574
327.3531938
323.6796792
320.5780403
317.3072742
313.7611204
309.9448549
305.8590016
301.5047509
296.8978804
292.0551832
286.9941153
281.7344886
276.2942969
270.7008253
264.9785576
259.1436817
253.2219055
247.2467459
241.2271604
235.1834081
229.1527959
223.1609492
217.2201839
211.3313054
205.5178764
199.8113369
194.2189313
188.7341567
183.3698235
178.1468792
173.0651833
168.1195552
163.3167116
158.6544274
154.1275677
149.7278064
145.4507966
141.3005154
137.2610635
133.3014108
129.397113
125.5055238
121.5588804
117.4437209
112.9512373
107.7226234
101.2466422
92.45167809
71.62427865
338.88076
335.7523864
331.9838037
328.801351
325.4452934
321.8067307
317.8910809
313.6988987
309.231449
304.5049231
299.5365682
294.3443101
288.9484814
283.3675694
277.6295782
271.7596049
265.7742812
259.7000087
253.5711011
247.396783
241.1978757
235.0126087
228.8672314
222.7743371
216.7348062
210.7728183
204.9205474
199.1853803
193.5606909
188.059623
182.7036027
177.492467
172.420924
167.4958318
162.7148989
158.0728505
153.5611492
149.175343
144.919483
140.7772404
136.7168044
132.7130931
128.7223604
124.6750935
120.4549106
115.8476675
110.4854466
103.8439439
94.82363313
73.46279945
347.6205245
344.4098206
340.5430239
337.2774698
333.8338054
330.100341
326.082626
321.7812381
317.1974808
312.3479995
307.2504789
301.9233463
296.3874376
290.6617757
284.7750634
278.7530483
272.6128269
266.381482
260.0941844
253.7604137
247.401562
241.0568217
234.75309
228.5032574
222.3082669
216.1929336
210.1902068
204.3076264
198.5384277
192.8961058
187.4025909
182.0576942
176.8560085
171.8045463
166.9009453
162.1397837
157.5123114
153.0139637
148.6488599
144.4002356
140.2354633
136.1287833
132.0353056
127.8836809
123.5544486
118.8278425
113.3263057
106.511816
97.25569202
75.33615812
356.632769
353.3382668
349.3707975
346.0199388
342.486281
338.655274
334.5326293
330.1189468
325.4155748
320.4396051
315.209195
309.7432497
304.0631671
298.1884707
292.1486157
285.9700167
279.6702262
273.2770373
266.8265159
260.328397
253.8046483
247.2954673
240.8284219
234.4167239
228.0613638
221.7878122
215.6298283
209.5951301
203.6767944
197.8886762
192.2532369
186.7702755
181.4342572
176.2523577
171.2221517
166.3380694
161.5911366
156.9766735
152.4988895
148.140578
143.8682708
139.6555397
135.45632
131.1974139
126.7562552
121.9073936
116.2635375
109.2727363
99.77682808
77.28955608
365.924983
362.5436839
358.4722359
355.0335222
351.4072504
347.4758829
343.2452681
338.7160212
333.889564
328.7834069
323.4161946
317.8073461
311.9787957
305.9505989
299.7530065
293.4130906
286.9488732
280.3888961
273.77013
267.1025831
260.4088138
253.7300472
247.0945582
240.5158855
233.9950733
227.5582501
221.240042
215.0483439
208.9760736
203.0374388
197.2554734
191.6299604
186.1552246
180.83862
175.6776511
170.6666032
165.7962651
161.0618388
156.4676199
151.9959436
147.6124783
143.2900846
138.9814828
134.6115363
130.054454
125.0788242
119.2871473
112.1129269
102.3671522
79.28907504
375.5087454
372.0386175
367.8603284
364.3312396
360.6096433
356.5749466
352.2331539
347.5848998
342.631653
337.3913877
331.883242
326.1271491
320.1456212
313.959252
307.5990788
301.0928851
294.4591729
287.7272353
280.9350073
274.0927566
267.2236477
260.3699775
253.5607512
246.8098558
240.1183713
233.5131168
227.0296036
220.6759304
214.4448323
208.3508945
202.417738
196.6451377
191.0272703
185.5716757
180.2757966
175.1337596
170.1361158
165.2779441
160.5636453
155.975083
151.477031
147.0416418
142.6203898
138.1361703
133.4598946
128.3540973
122.4108893
115.0489489
105.0479859
81.36581997
385.3929776
381.8309205
377.5422856
373.9200173
370.1001933
365.9590461
361.5027229
356.7318577
351.6479429
346.2694698
340.6160713
334.7082263
328.5690156
322.2195968
315.6918234
309.0142064
302.205738
295.2964887
288.3253835
281.3029622
274.2529983
267.2189139
260.2304686
253.301903
246.4343377
239.6552989
233.0012283
226.4804139
220.0854123
213.8312026
207.7420099
201.817598
196.0519967
190.4529371
185.0177916
179.7405314
174.6114577
169.6255229
164.7872282
160.0779544
155.4615553
150.9094303
146.3717691
141.7694239
136.9698752
131.7293537
125.6291355
118.0724585
107.8063972
83.49789643
395.5894094
391.9329814
387.5307813
383.812528
379.8914745
375.6405893
371.0661834
366.1689094
360.9503036
355.4293488
349.6261998
343.5618801
337.2600826
330.7425294
324.0419175
317.1875112
310.1988097
303.1066824
295.9510808
288.7428203
281.5063128
274.2861257
267.1128011
260.000952
252.9517357
245.9934058
239.1633646
232.470111
225.9060105
219.4864399
213.2362572
207.1552178
201.2371962
195.4901269
189.9113064
184.4945478
179.2298964
174.1121724
169.1459912
164.3122381
159.5738131
154.9013573
150.243741
145.5197211
140.5932695
135.214171
128.9526322
121.1961016
110.658379
85.7070769
406.1082194
402.3542366
397.8347617
394.0174915
389.9920419
385.6280127
380.9318664
375.9042697
370.546782
364.8788731
358.9212644
352.6955662
346.2260804
339.5351103
332.6562237
325.6194661
318.4448526
311.1640814
303.8181555
296.4181775
288.9892139
281.5770214
274.212951
266.9119969
259.67535
252.5320295
245.5204136
238.6492229
231.9106252
225.3204148
218.9040997
212.6614185
206.5860944
200.6862741
194.9591681
189.398427
183.9938405
178.7400835
173.641886
168.6796271
163.8152142
159.0185001
154.2369939
149.38727
144.329668
138.8072941
132.378839
124.415358
113.5960331
87.97953563
416.9619963
413.1076139
408.4672961
404.5479234
400.4147977
395.9340393
391.1122839
385.950217
380.4494419
374.6299498
368.5130173
362.1208337
355.4783512
348.6084717
341.5456605
334.3207657
326.9543397
319.4789301
311.9366317
304.3388463
296.7113141
289.1010124
281.5401275
274.0440521
266.6140134
259.2798072
252.0808322
245.0260392
238.1073901
231.3411024
224.7533614
218.3438969
212.1062663
206.0488322
200.1687296
194.4594387
188.9104769
183.5163775
178.2819935
173.1871782
168.1928224
163.2679716
158.3587308
153.3794433
148.1867135
142.516781
135.9165483
127.740256
116.6316328
90.33093401
428.1621052
424.2039567
419.4388499
415.4141153
411.1698887
406.568675
401.6173166
396.3164973
390.6678689
384.6919729
378.4106384
371.8466819
365.0257024
357.9712237
350.7186401
343.2996065
335.7352418
328.0589739
320.31403
312.5121183
304.6796702
296.864925
289.100934
281.4034971
273.7738794
266.242678
258.8503449
251.6060733
244.5016059
237.5535998
230.7889399
224.2073416
217.8022026
211.5820969
205.5440819
199.6814669
193.9834813
188.4445246
183.0695647
177.8379144
172.709411
167.6522603
162.6111239
157.4980195
152.1656957
146.3432916
139.5654646
131.1690421
119.7609401
92.75285606
439.7213947
435.6565553
430.7628167
426.6293627
422.2704837
417.5449764
412.4598684
407.0158625
401.2146566
395.0773476
388.6263549
381.8851117
374.879909
367.6349072
360.1864568
352.5670671
344.7984287
336.9148734
328.9607933
320.9482141
312.9042835
304.8785422
296.9049315
288.9996764
281.1640798
273.4295658
265.8376746
258.3978452
251.1016006
243.9660483
237.0187952
230.2595485
223.6815288
217.2935401
211.0925595
205.0717152
199.2199462
193.5315016
188.0114807
182.6386362
177.3717224
172.1780853
167.0008908
161.7497797
156.2735219
150.293941
143.3331356
134.7100227
122.9937131
95.2570302
451.652858
447.477599
442.4509663
438.2052581
433.7280277
428.8742762
423.651102
418.0593103
412.1006384
405.7967329
399.1706339
392.2464177
385.0510716
377.6094236
369.9588143
362.1326277
354.1531429
346.0556347
337.8856922
329.6556652
321.3934445
313.1499134
304.9599328
296.8401642
288.7919533
280.8475725
273.0496865
265.4079981
257.9137956
250.5846473
243.4489084
236.5062817
229.7497989
223.1885058
216.8192963
210.635109
204.6245793
198.7818075
193.1120286
187.5934116
182.1835995
176.8490321
171.5313331
166.1377002
160.5127816
154.3708181
147.2209046
138.3634376
126.3283691
97.83869907
463.9706422
459.6815265
454.5177659
450.1562082
445.5568072
440.5706133
435.2049188
429.4605513
423.3392968
416.8633932
410.0565099
402.9433804
395.5517288
387.9070616
380.0477387
372.0080538
363.8108956
355.4925026
347.0997042
338.6451892
330.1576117
321.6892411
313.2758877
304.9346658
296.6669612
288.5059273
280.4953887
272.6453108
264.9467469
257.4177457
250.0874321
242.9554995
236.0147912
229.2745984
222.7317294
216.3789296
210.2045248
204.2024554
198.3780964
192.7090194
187.1517136
181.6717019
176.2090146
170.6683159
164.8900136
158.5805513
151.2356391
142.1365852
129.7730148
100.5070585
476.6884671
472.2816711
466.9762849
462.4951028
457.7695624
452.6466221
447.1337392
441.2318079
434.9426723
428.2891761
421.295629
413.9874592
406.3931318
398.5388541
390.4640552
382.2039441
373.7820452
365.2356064
356.6127228
347.9264305
339.2061804
330.5056713
321.8616898
313.2918189
304.7974918
296.4127689
288.1826656
280.1174265
272.2078593
264.4725061
256.9412958
249.6139062
242.4829825
235.5580686
228.8358875
222.3089888
215.9653745
209.7988184
203.8148402
197.9903979
192.2807857
186.6505703
181.0381505
175.3455625
169.408818
162.9263219
155.379926
146.0311947
133.3280598
103.2598377
489.821499
485.2932413
479.8416497
475.2369487
470.3811498
465.1169992
459.4521601
453.3875517
446.9250703
440.0881899
432.9018907
425.3923025
417.5886752
409.51794
401.2206125
392.7328714
384.0788912
375.2969476
366.436458
357.5108193
348.5502967
339.6100674
330.7279295
321.9219485
313.193601
304.5778867
296.1210573
287.8336376
279.7061848
271.757753
264.0190918
256.4898691
249.1625291
242.046877
235.1395444
228.4328753
221.9145418
215.5781468
209.4293591
203.4445
197.5776331
191.7923474
186.0253432
180.175955
174.0756715
167.4145842
159.6602736
150.0539506
137.0005131
106.1047271
503.3845669
498.7308704
493.1282604
488.3959888
483.4056629
477.9956726
472.173893
465.9412751
459.2997937
452.2735329
444.8881784
437.1705848
429.1508163
420.8565371
412.3293986
403.6065775
394.7129221
385.6877632
376.5818923
367.4090738
358.2004105
349.0126078
339.8845066
330.834682
321.8646455
313.0103702
304.3193867
295.8025026
287.4500239
279.2815298
271.3286175
263.5909425
256.0607479
248.7481082
241.649549
234.7572085
228.05842
221.5466136
215.227605
209.0770587
203.0477701
197.1023108
191.1756292
185.1642665
178.8950308
172.0494473
164.0803151
154.2077883
140.7923061
109.0411722
517.39423
512.6111194
506.8524852
501.9885563
496.8592705
491.2986369
485.3147506
478.9085892
472.0821838
464.8602903
457.2693097
449.3368451
441.0937982
432.5686051
423.8040763
414.8384233
405.6971879
396.4207971
387.0614532
377.6333057
368.1683262
358.7247967
349.3426369
340.0409372
330.8212554
321.7205667
312.7877203
304.0338221
295.4489114
287.0531136
278.8789014
270.9259194
263.1861964
255.6700857
248.3740157
241.2899044
234.4047334
227.711751
221.2169316
214.89526
208.6982193
202.5873376
196.4957513
190.3171189
183.8734228
176.8373202
168.6463845
158.4990564
144.7098364
112.0759631
531.8663161
526.9495092
521.0297358
516.0296707
510.756816
505.0406511
498.889344
492.3039471
485.2865674
477.8626351
470.059275
461.904887
453.431211
444.6674965
435.6577597
426.4412734
417.0442848
407.5083773
397.8872
388.1952933
378.4655368
368.757838
359.1132307
349.5513334
340.0737614
330.7185179
321.5358112
312.5370697
303.7120464
295.0814295
286.6786051
278.5032022
270.5470246
262.8207107
255.3205931
248.0383763
240.9606573
234.0805009
227.4040503
220.9055869
214.5352469
208.2534592
201.9914987
195.6400455
189.016091
181.783122
173.3629643
162.9316448
148.7562122
115.209878
546.8197571
541.7646961
535.6784483
530.5378237
525.1166137
519.2396218
512.91526
506.1446098
498.929877
491.2971389
483.2743045
474.8905632
466.1785807
457.1684006
447.9052727
438.4295854
428.7683402
418.9642841
409.0725525
399.108121
389.1047803
379.1241275
369.2083475
359.3776083
349.6335753
340.0153215
330.5744619
321.3227433
312.2496344
303.3764062
294.7373789
286.33217
278.1523546
270.2088686
262.4979401
255.0110397
247.734388
240.6608562
233.7967564
227.1156445
220.5662566
214.1079071
207.6699363
201.1399478
194.3297816
186.8934573
178.236549
167.5119084
152.9375236
118.4490682
562.2711816
557.073358
550.8150745
545.5291026
539.9546511
533.9115322
527.4083906
520.4463718
513.0277473
505.1792788
496.9296842
488.3089844
479.3507511
470.0858968
460.5609582
450.8174495
440.8831441
430.8020044
420.6307141
410.3846678
400.0986264
389.8359265
379.639938
369.5313992
359.5120217
349.6219919
339.9143737
330.401244
321.0717763
311.9478486
303.0647488
294.422069
286.0111568
277.8432585
269.9144887
262.2160795
254.7338582
247.4604956
240.4024869
233.5326289
226.798221
220.1574108
213.5375484
206.8230498
199.8204478
192.1739666
183.2723467
172.2445316
157.2578183
121.7953178
578.240836
572.8953471
566.4594255
561.0229745
555.2900826
549.0751804
542.387305
535.2274762
527.598072
519.5266071
511.0426215
502.176987
492.9642551
483.4361864
473.64065
463.6203376
453.4038167
443.0363069
432.5760848
422.0389936
411.4607839
400.906593
390.4210073
380.0253596
369.721425
359.5505193
349.5672113
339.7839161
330.1895052
320.806481
311.6711292
302.7830289
294.1332841
285.7334581
277.5795543
269.6625547
261.967885
254.4880092
247.2296026
240.1646867
233.239066
226.4096975
219.6018654
212.6966987
205.495229
197.6315707
188.477107
177.1360299
161.7232117
125.2546346
594.7476352
589.2495314
582.6298228
577.0380762
571.1414219
564.7490047
557.8701113
550.5057649
542.6584887
534.3565135
525.6302398
516.5114417
507.0356272
497.2354765
487.1602522
476.8538174
466.3455812
455.6820661
444.9231929
434.085262
423.2050509
412.3495606
401.5646384
390.8722207
380.2741431
369.8129114
359.544637
349.4820947
339.6138337
329.9629969
320.5669104
311.4251346
302.5285282
293.8889724
285.5023604
277.3594191
269.4451532
261.7518271
254.2862826
247.0197379
239.8964644
232.8721865
225.8700645
218.7678107
211.3607653
203.2726033
193.8567519
182.1918303
166.3385962
128.8296403
611.8113901
606.1557458
599.3460888
593.5938177
587.5278717
580.9520485
573.8757397
566.3000537
558.2275808
549.687388
540.7106991
531.3302268
521.5824766
511.5010779
501.136729
490.5345342
479.7247399
468.7552253
457.6876202
446.5386911
435.3462816
424.1793123
413.0849398
402.0857323
391.1835883
380.4222142
369.8593395
359.5081038
349.3567322
339.429033
329.7633981
320.3593739
311.2075591
302.3201734
293.6929911
285.3164721
277.1751915
269.2611932
261.5815108
254.1065342
246.7789373
239.5531726
232.3501925
225.0441969
217.4246466
209.1044121
199.4183729
187.4187018
171.1101141
132.5261562
629.4553148
623.6366042
616.6303961
610.7122107
604.4711436
597.7055305
590.4250333
582.6307449
574.3254111
565.5388479
556.3031749
546.6520872
536.6231441
526.2509138
515.5875826
504.6795428
493.5579396
482.2720177
470.8851732
459.4146823
447.8994709
436.4104382
424.9961052
413.6796921
402.4631513
391.3914558
380.5239891
369.8742682
359.4301776
349.2162221
339.2718971
329.5967247
320.181044
311.0374227
302.1615057
293.5434745
285.1674794
277.0253158
269.1242216
261.4337364
253.8948788
246.4607943
239.0501336
231.5334772
223.6942027
215.1339985
205.1685686
192.8227647
176.0434099
136.3474948
647.6998325
641.7126483
634.5033313
628.4135146
621.9914278
615.0297144
607.5381316
599.5178704
590.9717836
581.9305071
572.4270849
562.4962021
552.1764925
541.5035434
530.5310775
519.3067951
507.862753
496.2496578
484.5327144
472.7296996
460.8806867
449.0586191
437.3134246
425.6689915
414.1273379
402.7347397
391.5522835
380.5939
369.8471248
359.3371533
349.1046274
339.1490714
329.4605256
320.0519284
310.9187995
302.0510307
293.4323157
285.0542129
276.9241665