/*--------------------------------*- C++ -*----------------------------------*\
| =========                 |                                                 |
| \\      /  F ield         | OpenFOAM: The Open Source CFD Toolbox           |
|  \\    /   O peration     | Version:  5.x                                   |
|   \\  /    A nd           | Web:      www.OpenFOAM.org                      |
|    \\/     M anipulation  |                                                 |
\*---------------------------------------------------------------------------*/
FoamFile
{
    version     2.0;
    format      ascii;
    class       volScalarField;
    location    "0.004";
    object      vpstar;
}
// * * * * * * * * * * * * * * * * * * * * * * * * * * * * * * * * * * * * * //

dimensions      [0 3 0 0 0 0 0];

internalField   nonuniform List<scalar> 
7950
(
1.727202629e-30
1.727263064e-30
1.728538149e-30
1.730447711e-30
1.732987237e-30
1.736143747e-30
1.739926338e-30
1.744356618e-30
1.74946298e-30
1.755280076e-30
1.761848902e-30
1.769217062e-30
1.777439375e-30
1.786578742e-30
1.796707187e-30
1.807907059e-30
1.820272538e-30
1.833911407e-30
1.848947192e-30
1.865521763e-30
1.883798453e-30
1.903965888e-30
1.926242656e-30
1.950883077e-30
1.978184333e-30
2.008495386e-30
2.042228218e-30
2.079872057e-30
2.122011511e-30
2.169350143e-30
2.222742025e-30
2.283231968e-30
2.352105494e-30
2.43096365e-30
2.52187694e-30
2.627442664e-30
2.75085773e-30
2.896725243e-30
3.071068593e-30
3.281792948e-30
3.540398096e-30
3.863264358e-30
4.27469951e-30
4.812162746e-30
5.535953995e-30
6.54855035e-30
8.036647852e-30
1.03710671e-29
1.435835354e-29
2.189838065e-29
3.13935533e-30
3.141894214e-30
3.149034188e-30
3.157708404e-30
3.168765688e-30
3.182363667e-30
3.198559857e-30
3.217452699e-30
3.239170235e-30
3.263857306e-30
3.291677042e-30
3.322817096e-30
3.357492216e-30
3.395947086e-30
3.438459944e-30
3.485346582e-30
3.536965497e-30
3.593723562e-30
3.656082542e-30
3.724566196e-30
3.799772219e-30
3.882387993e-30
3.973201896e-30
4.073104396e-30
4.183122249e-30
4.304449064e-30
4.438466542e-30
4.586774349e-30
4.751247216e-30
4.934094593e-30
5.137906809e-30
5.365761239e-30
5.621263282e-30
5.908714615e-30
6.233535517e-30
6.602069502e-30
7.021091418e-30
7.501963035e-30
8.056035643e-30
8.695759335e-30
9.441035696e-30
1.031488325e-29
1.13467171e-29
1.257497733e-29
1.405073456e-29
1.584514826e-29
1.806531677e-29
2.087305117e-29
2.448869812e-29
3.017398037e-29
5.428643478e-30
5.435014591e-30
5.452430374e-30
5.472404009e-30
5.497285049e-30
5.5274484e-30
5.562991099e-30
5.604107415e-30
5.651050383e-30
5.704096985e-30
5.763551881e-30
5.829760336e-30
5.903111466e-30
5.984041387e-30
6.073037246e-30
6.170641395e-30
6.277456956e-30
6.394153284e-30
6.521471807e-30
6.660233563e-30
6.811352071e-30
6.975850792e-30
7.154864066e-30
7.349620871e-30
7.561492632e-30
7.79201975e-30
8.042908226e-30
8.316047426e-30
8.61355809e-30
8.937818107e-30
9.291458038e-30
9.67741372e-30
1.00988943e-29
1.055955913e-29
1.106378669e-29
1.1615973e-29
1.222047512e-29
1.288610149e-29
1.361809041e-29
1.442096668e-29
1.530594052e-29
1.628242213e-29
1.736139322e-29
1.855654523e-29
1.988577486e-29
2.137603711e-29
2.307400103e-29
2.505278876e-29
2.740075809e-29
3.122084503e-29
8.179733472e-30
8.198533672e-30
8.233516969e-30
8.267668857e-30
8.307945699e-30
8.355571901e-30
8.410716077e-30
8.473690848e-30
8.54489145e-30
8.624697714e-30
8.713478306e-30
8.811626597e-30
8.919750632e-30
9.038209699e-30
9.167576328e-30
9.308589986e-30
9.461746288e-30
9.627806938e-30
9.807525293e-30
1.000169375e-29
1.021118045e-29
1.043695412e-29
1.068001056e-29
1.094131612e-29
1.122185803e-29
1.152294787e-29
1.184659355e-29
1.219234657e-29
1.256193367e-29
1.295854307e-29
1.338229767e-29
1.383489187e-29
1.431814469e-29
1.483392111e-29
1.538435661e-29
1.597121162e-29
1.659661282e-29
1.726590809e-29
1.79796705e-29
1.873861158e-29
1.954939942e-29
2.041625233e-29
2.13450009e-29
2.234476629e-29
2.343092405e-29
2.463364125e-29
2.601472501e-29
2.767787075e-29
2.980617599e-29
3.470673074e-29
1.059575528e-29
1.062406722e-29
1.067339282e-29
1.07190532e-29
1.077130608e-29
1.083183998e-29
1.090083532e-29
1.097866444e-29
1.106578042e-29
1.116258353e-29
1.126943989e-29
1.1386756e-29
1.151511967e-29
1.165482955e-29
1.180643664e-29
1.197059198e-29
1.214767607e-29
1.233832841e-29
1.254313337e-29
1.276268224e-29
1.299761088e-29
1.324859872e-29
1.351627503e-29
1.380118477e-29
1.410390952e-29
1.442535998e-29
1.476665909e-29
1.512674974e-29
1.550699584e-29
1.590959927e-29
1.633373789e-29
1.678015991e-29
1.724962884e-29
1.774285592e-29
1.826062804e-29
1.880333786e-29
1.937200194e-29
1.996986565e-29
2.059536371e-29
2.12478417e-29
2.193208497e-29
2.265033742e-29
2.34065031e-29
2.420781533e-29
2.506780032e-29
2.601432703e-29
2.710462901e-29
2.843460668e-29
3.019613408e-29
3.453910812e-29
1.226722734e-29
1.231096665e-29
1.237551561e-29
1.243110853e-29
1.249250837e-29
1.256225641e-29
1.264061556e-29
1.272804594e-29
1.282506877e-29
1.29320924e-29
1.3049467e-29
1.317759217e-29
1.331698606e-29
1.34678999e-29
1.363083205e-29
1.380630644e-29
1.399460651e-29
1.419623491e-29
1.441161861e-29
1.464114444e-29
1.48851458e-29
1.514416312e-29
1.541945171e-29
1.570938226e-29
1.601458467e-29
1.633747688e-29
1.667696161e-29
1.703218679e-29
1.740448291e-29
1.779514175e-29
1.820307402e-29
1.862859238e-29
1.907200506e-29
1.953357438e-29
2.001358684e-29
2.051213532e-29
2.103011597e-29
2.156972261e-29
2.212915441e-29
2.270826605e-29
2.331162142e-29
2.394189915e-29
2.460404409e-29
2.530728771e-29
2.606905646e-29
2.692521217e-29
2.794926844e-29
2.926770383e-29
3.115485518e-29
3.65602419e-29
1.323248559e-29
1.328294962e-29
1.335488621e-29
1.341632653e-29
1.348340332e-29
1.355880466e-29
1.364280776e-29
1.373589428e-29
1.383858307e-29
1.395126029e-29
1.407425197e-29
1.420793467e-29
1.435275343e-29
1.450892347e-29
1.467688357e-29
1.485704977e-29
1.504963636e-29
1.52550362e-29
1.547355447e-29
1.570544806e-29
1.595095621e-29
1.621054127e-29
1.648492161e-29
1.677259119e-29
1.707425002e-29
1.739165728e-29
1.772349314e-29
1.806900072e-29
1.842926918e-29
1.880500343e-29
1.919504188e-29
1.959945635e-29
2.001830676e-29
2.045161371e-29
2.089941057e-29
2.136167773e-29
2.183919432e-29
2.233343751e-29
2.284258454e-29
2.336675105e-29
2.391007196e-29
2.447513274e-29
2.506682831e-29
2.569434025e-29
2.637499326e-29
2.714391851e-29
2.80717276e-29
2.928025519e-29
3.104352864e-29
3.624079802e-29
1.373375439e-29
1.379260657e-29
1.387130671e-29
1.393737571e-29
1.400864062e-29
1.408812062e-29
1.417614553e-29
1.427323919e-29
1.437993181e-29
1.449659127e-29
1.462352327e-29
1.476108188e-29
1.49096514e-29
1.50694266e-29
1.524079457e-29
1.542408971e-29
1.561948509e-29
1.5827298e-29
1.604773557e-29
1.628089099e-29
1.652700519e-29
1.678722942e-29
1.706038385e-29
1.734544875e-29
1.764461263e-29
1.79578841e-29
1.828412364e-29
1.862283228e-29
1.897491485e-29
1.934071568e-29
1.971914737e-29
2.011019983e-29
2.051385648e-29
2.093008074e-29
2.135886884e-29
2.180028367e-29
2.22551437e-29
2.272459644e-29
2.32071478e-29
2.370343661e-29
2.421764304e-29
2.475287275e-29
2.531484668e-29
2.591406054e-29
2.657013404e-29
2.73226029e-29
2.825091329e-29
2.94941553e-29
3.137519398e-29
3.723288438e-29
1.395955387e-29
1.402112442e-29
1.410222553e-29
1.417067487e-29
1.424436036e-29
1.432625725e-29
1.441670142e-29
1.451621543e-29
1.462531022e-29
1.474433226e-29
1.487357018e-29
1.501335573e-29
1.516402746e-29
1.532576521e-29
1.549891452e-29
1.568375276e-29
1.588042347e-29
1.60891834e-29
1.631017787e-29
1.65434725e-29
1.678933539e-29
1.704859903e-29
1.732004855e-29
1.76029584e-29
1.789919725e-29
1.820855175e-29
1.852990576e-29
1.886286463e-29
1.920817991e-29
1.956596661e-29
1.99352066e-29
2.031583014e-29
2.070776227e-29
2.111091757e-29
2.152525472e-29
2.195086142e-29
2.238850367e-29
2.283904254e-29
2.330115619e-29
2.377568009e-29
2.426657754e-29
2.477697035e-29
2.531258887e-29
2.588389401e-29
2.651036233e-29
2.723082567e-29
2.812237397e-29
2.932045297e-29
3.114183405e-29
3.689028285e-29
1.404355162e-29
1.410869735e-29
1.419218608e-29
1.426250707e-29
1.433794143e-29
1.442154722e-29
1.451368765e-29
1.461490036e-29
1.472568812e-29
1.484637957e-29
1.497724905e-29
1.511860831e-29
1.527076097e-29
1.543387521e-29
1.560826204e-29
1.579415831e-29
1.599169066e-29
1.620106304e-29
1.642231386e-29
1.66555036e-29
1.690151805e-29
1.715988474e-29
1.742953634e-29
1.771101829e-29
1.800509819e-29
1.831157094e-29
1.862944037e-29
1.895839379e-29
1.92990684e-29
1.965144507e-29
2.00145953e-29
2.038843343e-29
2.077287829e-29
2.116785011e-29
2.157332836e-29
2.198946799e-29
2.241704338e-29
2.285679297e-29
2.33076418e-29
2.377069637e-29
2.424993048e-29
2.474874271e-29
2.527328395e-29
2.58346572e-29
2.645342615e-29
2.717046413e-29
2.806693737e-29
2.928631662e-29
3.116980804e-29
3.72518912e-29
1.405081458e-29
1.411680261e-29
1.420077491e-29
1.427190543e-29
1.434822353e-29
1.443271411e-29
1.452574066e-29
1.462783306e-29
1.473947631e-29
1.486098403e-29
1.499261856e-29
1.513467511e-29
1.528743122e-29
1.545104556e-29
1.562580301e-29
1.581191026e-29
1.600947625e-29
1.621866773e-29
1.643950258e-29
1.667207416e-29
1.691714172e-29
1.717414991e-29
1.744213094e-29
1.772163632e-29
1.801330627e-29
1.831684293e-29
1.863129679e-29
1.895640843e-29
1.929272475e-29
1.96401513e-29
1.999780516e-29
2.03655716e-29
2.074337087e-29
2.11311082e-29
2.152875868e-29
2.193649641e-29
2.235505554e-29
2.278504648e-29
2.322551953e-29
2.367767353e-29
2.4145347e-29
2.463193273e-29
2.5143559e-29
2.569125127e-29
2.629536482e-29
2.699611667e-29
2.787279041e-29
2.906586853e-29
3.091191999e-29
3.689423838e-29
1.402194875e-29
1.408934608e-29
1.417396132e-29
1.424571293e-29
1.432261528e-29
1.440765811e-29
1.450121722e-29
1.460382525e-29
1.471595552e-29
1.483790901e-29
1.496993773e-29
1.511232186e-29
1.526531837e-29
1.542907786e-29
1.5603864e-29
1.578986375e-29
1.598716823e-29
1.619587147e-29
1.641596746e-29
1.664800138e-29
1.689193015e-29
1.714720954e-29
1.741365592e-29
1.769125831e-29
1.798066438e-29
1.828155662e-29
1.859302514e-29
1.891481484e-29
1.92474071e-29
1.959104669e-29
1.99442166e-29
2.030685012e-29
2.06795984e-29
2.106181322e-29
2.145354599e-29
2.185506869e-29
2.226711425e-29
2.269023861e-29
2.312364279e-29
2.356866526e-29
2.402913099e-29
2.450844721e-29
2.501308396e-29
2.555433793e-29
2.615273972e-29
2.684942546e-29
2.772513376e-29
2.892324715e-29
3.079019405e-29
3.690333059e-29
1.397319741e-29
1.404067572e-29
1.412508524e-29
1.419694249e-29
1.427399207e-29
1.435916092e-29
1.445282265e-29
1.455550134e-29
1.466765681e-29
1.478957934e-29
1.492151231e-29
1.506372422e-29
1.521645616e-29
1.537985187e-29
1.555415824e-29
1.573954439e-29
1.593608786e-29
1.61438635e-29
1.636287668e-29
1.659363817e-29
1.683605524e-29
1.708957965e-29
1.735404141e-29
1.762944452e-29
1.791635864e-29
1.821443493e-29
1.852279074e-29
1.884119271e-29
1.91700994e-29
1.950965153e-29
1.98584132e-29
2.021634206e-29
2.058401196e-29
2.096080855e-29
2.134678601e-29
2.174222403e-29
2.214782871e-29
2.256409564e-29
2.299030575e-29
2.342783612e-29
2.388041631e-29
2.435144151e-29
2.484732276e-29
2.537923932e-29
2.596749509e-29
2.665260525e-29
2.7513756e-29
2.869176384e-29
3.052868774e-29
3.654553982e-29
1.391587307e-29
1.398376434e-29
1.406809794e-29
1.413998674e-29
1.421704468e-29
1.430217873e-29
1.43957665e-29
1.449832792e-29
1.461031473e-29
1.473200653e-29
1.486364073e-29
1.500547425e-29
1.515773529e-29
1.532056381e-29
1.549419102e-29
1.567874297e-29
1.587427526e-29
1.608113363e-29
1.629887306e-29
1.652800099e-29
1.676887784e-29
1.702056786e-29
1.728295763e-29
1.75560938e-29
1.784047263e-29
1.813597675e-29
1.844130322e-29
1.875627427e-29
1.908180175e-29
1.941758247e-29
1.976230709e-29
2.011598128e-29
2.04791312e-29
2.085117594e-29
2.123217968e-29
2.162243586e-29
2.202264064e-29
2.243326031e-29
2.28536585e-29
2.328526752e-29
2.373177898e-29
2.419663435e-29
2.468629793e-29
2.521199801e-29
2.579410148e-29
2.647322442e-29
2.732870605e-29
2.850167157e-29
3.033637073e-29
3.63764141e-29
1.3853433e-29
1.392107469e-29
1.400492884e-29
1.407658362e-29
1.415341596e-29
1.423828284e-29
1.433155871e-29
1.443375588e-29
1.454531585e-29
1.466651045e-29
1.479757016e-29
1.493874347e-29
1.509024794e-29
1.525221808e-29
1.542487291e-29
1.560832711e-29
1.580263454e-29
1.600811551e-29
1.622434705e-29
1.645180953e-29
1.669081594e-29
1.694046083e-29
1.720062349e-29
1.747135131e-29
1.77531109e-29
1.804573585e-29
1.834796619e-29
1.865965381e-29
1.898165212e-29
1.931362422e-29
1.965431298e-29
2.000373391e-29
2.03623709e-29
2.072966526e-29
2.110568313e-29
2.149071964e-29
2.188545047e-29
2.229030836e-29
2.270470476e-29
2.313008313e-29
2.357006231e-29
2.402805752e-29
2.451046359e-29
2.502837866e-29
2.560192577e-29
2.627113465e-29
2.711399584e-29
2.826932683e-29
3.007702366e-29
3.602359214e-29
1.37891812e-29
1.385675488e-29
1.394020649e-29
1.401159066e-29
1.408812452e-29
1.41726383e-29
1.426550701e-29
1.436723811e-29
1.447826571e-29
1.459885378e-29
1.472922603e-29
1.486961108e-29
1.502020421e-29
1.51813009e-29
1.535287352e-29
1.553500598e-29
1.572799919e-29
1.593200269e-29
1.614663712e-29
1.637232081e-29
1.66093311e-29
1.685696674e-29
1.711482236e-29
1.738296557e-29
1.766212743e-29
1.795187685e-29
1.82510264e-29
1.855947444e-29
1.887802574e-29
1.920632271e-29
1.954315306e-29
1.988854093e-29
2.024293946e-29
2.060581085e-29
2.09772253e-29
2.135748278e-29
2.17472468e-29
2.214693138e-29
2.255599653e-29
2.297590409e-29
2.34102287e-29
2.386238767e-29
2.433875501e-29
2.485038355e-29
2.541730454e-29
2.60793284e-29
2.691397403e-29
2.805912624e-29
2.985314471e-29
3.576924645e-29
1.372365806e-29
1.379082225e-29
1.387367067e-29
1.394464367e-29
1.402075175e-29
1.41047846e-29
1.419711316e-29
1.429823789e-29
1.440858481e-29
1.4528412e-29
1.465793798e-29
1.47973849e-29
1.494694315e-29
1.510690037e-29
1.527722465e-29
1.545799512e-29
1.564950881e-29
1.585189578e-29
1.606478638e-29
1.628858779e-29
1.652354689e-29
1.67689671e-29
1.702444947e-29
1.729006815e-29
1.756651535e-29
1.785334264e-29
1.814939329e-29
1.845458019e-29
1.876967077e-29
1.909429152e-29
1.942726511e-29
1.976861952e-29
2.011878183e-29
2.047722876e-29
2.084403035e-29
2.121948502e-29
2.160424023e-29
2.199868859e-29
2.240231925e-29
2.281659133e-29
2.324501856e-29
2.369098354e-29
2.416078522e-29
2.466534006e-29
2.522442826e-29
2.58773004e-29
2.670025375e-29
2.782903285e-29
2.959760158e-29
3.542323872e-29
1.36579438e-29
1.372479768e-29
1.380708672e-29
1.387762307e-29
1.395325009e-29
1.403678177e-29
1.412852391e-29
1.422895556e-29
1.433857426e-29
1.445758611e-29
1.458620507e-29
1.472465415e-29
1.487311439e-29
1.503185465e-29
1.520086906e-29
1.538021122e-29
1.557021692e-29
1.577090519e-29
1.598192305e-29
1.620378898e-29
1.643662785e-29
1.66797607e-29
1.693280896e-29
1.719585455e-29
1.7469554e-29
1.775345068e-29
1.804641489e-29
1.834837003e-29
1.866005367e-29
1.898108201e-29
1.931030699e-29
1.964775952e-29
1.999384665e-29
2.034805847e-29
2.071046594e-29
2.108136747e-29
2.146139836e-29
2.18509384e-29
2.224950492e-29
2.265855754e-29
2.308156485e-29
2.352188921e-29
2.398577978e-29
2.448406003e-29
2.503633729e-29
2.568149397e-29
2.649507115e-29
2.761137009e-29
2.936115638e-29
3.513083284e-29
1.359200249e-29
1.365836313e-29
1.373998855e-29
1.381001772e-29
1.388511031e-29
1.396804634e-29
1.405912836e-29
1.415882877e-29
1.426763866e-29
1.438576008e-29
1.451340287e-29
1.465078496e-29
1.479808344e-29
1.495555808e-29
1.512319914e-29
1.530105819e-29
1.548945834e-29
1.568840827e-29
1.589756437e-29
1.611742944e-29
1.634811103e-29
1.658893585e-29
1.683953118e-29
1.709998137e-29
1.737091663e-29
1.765187248e-29
1.794174189e-29
1.824045588e-29
1.854872622e-29
1.886616105e-29
1.919163718e-29
1.95251868e-29
1.986719952e-29
2.021717543e-29
2.057518489e-29
2.094152283e-29
2.131681168e-29
2.170141641e-29
2.209487308e-29
2.249863122e-29
2.291610556e-29
2.335061981e-29
2.380834482e-29
2.429996573e-29
2.484483558e-29
2.548129542e-29
2.628375166e-29
2.738448474e-29
2.910976795e-29
3.479228894e-29
1.352625491e-29
1.359218482e-29
1.367316673e-29
1.37426738e-29
1.381721233e-29
1.389953391e-29
1.398993017e-29
1.408885459e-29
1.419681371e-29
1.431400085e-29
1.444061616e-29
1.457687444e-29
1.472294915e-29
1.487909201e-29
1.504529033e-29
1.522159375e-29
1.540831558e-29
1.560546196e-29
1.581269406e-29
1.603050364e-29
1.625898475e-29
1.649747116e-29
1.674559452e-29
1.700344012e-29
1.727161739e-29
1.754965621e-29
1.783646872e-29
1.813199173e-29
1.843691491e-29
1.875084174e-29
1.907266994e-29
1.940243193e-29
1.974050346e-29
2.008639376e-29
2.04401722e-29
2.080213101e-29
2.117288149e-29
2.155277862e-29
2.194137577e-29
2.234011383e-29
2.275236224e-29
2.318141474e-29
2.363337926e-29
2.411882601e-29
2.465689976e-29
2.5285516e-29
2.60782106e-29
2.716563164e-29
2.887019374e-29
3.448593003e-29
1.346061909e-29
1.352602544e-29
1.360632458e-29
1.367528717e-29
1.374924691e-29
1.383092294e-29
1.392060347e-29
1.401873658e-29
1.412582077e-29
1.424204546e-29
1.436760654e-29
1.450271385e-29
1.464753692e-29
1.480232037e-29
1.496704872e-29
1.514177005e-29
1.532678915e-29
1.552210592e-29
1.572738825e-29
1.594311659e-29
1.616937446e-29
1.640550131e-29
1.665113316e-29
1.69063554e-29
1.717175875e-29
1.744687004e-29
1.773061824e-29
1.802294363e-29
1.832451695e-29
1.863493827e-29
1.89531234e-29
1.927910426e-29
1.961324393e-29
1.995505871e-29
2.03046161e-29
2.066220395e-29
2.102842206e-29
2.140361406e-29
2.178734522e-29
2.218104168e-29
2.2588024e-29
2.301154456e-29
2.34576323e-29
2.3936719e-29
2.446769593e-29
2.508795405e-29
2.58699577e-29
2.694242499e-29
2.862323266e-29
3.415500746e-29
1.339522879e-29
1.346013015e-29
1.35397512e-29
1.360814942e-29
1.368150224e-29
1.376250167e-29
1.385143344e-29
1.394874076e-29
1.405491529e-29
1.417014289e-29
1.429461595e-29
1.442854009e-29
1.45720812e-29
1.472547798e-29
1.488871301e-29
1.506183238e-29
1.524513344e-29
1.543861116e-29
1.564193836e-29
1.58555846e-29
1.607962533e-29
1.631340539e-29
1.655656371e-29
1.680918485e-29
1.707184402e-29
1.734406665e-29
1.762479615e-29
1.791397516e-29
1.821225841e-29
1.851924414e-29
1.883386446e-29
1.915615033e-29
1.948645454e-29
1.982430044e-29
2.016975361e-29
2.052309798e-29
2.088492408e-29
2.125556695e-29
2.163460239e-29
2.202344422e-29
2.242536968e-29
2.28435944e-29
2.328407849e-29
2.37571323e-29
2.428142197e-29
2.489388641e-29
2.566608352e-29
2.672504944e-29
2.838457887e-29
3.384521771e-29
1.333003982e-29
1.339438533e-29
1.347330348e-29
1.35411181e-29
1.361384672e-29
1.369415263e-29
1.378231816e-29
1.387878155e-29
1.398402768e-29
1.409823909e-29
1.422160466e-29
1.435432597e-29
1.449656559e-29
1.464855667e-29
1.481027967e-29
1.498177879e-29
1.516334457e-29
1.535496785e-29
1.555632527e-29
1.576787699e-29
1.598969142e-29
1.622111824e-29
1.646179929e-29
1.671181762e-29
1.697173454e-29
1.724107494e-29
1.751879544e-29
1.78048396e-29
1.809984791e-29
1.840341762e-29
1.871449501e-29
1.903310959e-29
1.935960488e-29
1.969350946e-29
2.003488659e-29
2.038401566e-29
2.074147665e-29
2.110759606e-29
2.148195688e-29
2.186595646e-29
2.226282604e-29
2.26757394e-29
2.311057769e-29
2.357751435e-29
2.409496528e-29
2.469936026e-29
2.546123466e-29
2.650577137e-29
2.814225155e-29
3.352188171e-29
1.326513862e-29
1.332894898e-29
1.340717536e-29
1.347440281e-29
1.354649953e-29
1.362610298e-29
1.371349215e-29
1.380910201e-29
1.391341012e-29
1.402659586e-29
1.414884484e-29
1.428035447e-29
1.442128465e-29
1.457186343e-29
1.473206934e-29
1.490194465e-29
1.508177368e-29
1.527154358e-29
1.547093439e-29
1.568039785e-29
1.589999648e-29
1.61290846e-29
1.636730668e-29
1.661474369e-29
1.687194497e-29
1.713843589e-29
1.741318483e-29
1.76961361e-29
1.798791745e-29
1.828812585e-29
1.859572086e-29
1.891073045e-29
1.923349004e-29
1.956353345e-29
1.9900922e-29
2.024593069e-29
2.059913013e-29
2.096083953e-29
2.133064987e-29
2.170994228e-29
2.210190612e-29
2.250967664e-29
2.293906296e-29
2.340011345e-29
2.391101322e-29
2.450773005e-29
2.525988782e-29
2.62909835e-29
2.790615064e-29
3.321302911e-29
1.320047686e-29
1.326372092e-29
1.334124107e-29
1.340787126e-29
1.347932733e-29
1.355822006e-29
1.364482513e-29
1.373957251e-29
1.38429336e-29
1.395508486e-29
1.407620862e-29
1.42064987e-29
1.434611182e-29
1.449527144e-29
1.46539542e-29
1.482220042e-29
1.500028875e-29
1.518820324e-29
1.538562656e-29
1.559300237e-29
1.581038824e-29
1.603714316e-29
1.627291367e-29
1.651777855e-29
1.677227623e-29
1.703593307e-29
1.730772836e-29
1.758760628e-29
1.78761828e-29
1.817305565e-29
1.847719609e-29
1.878863032e-29
1.910768611e-29
1.943390175e-29
1.976733607e-29
2.010825913e-29
2.045723208e-29
2.081456695e-29
2.117985941e-29
2.155447315e-29
2.194155403e-29
2.234419524e-29
2.276812822e-29
2.322326688e-29
2.372755107e-29
2.431645472e-29
2.505861969e-29
2.607575688e-29
2.766856419e-29
3.289717008e-29
1.313611127e-29
1.319880472e-29
1.327562893e-29
1.334166252e-29
1.341247642e-29
1.34906564e-29
1.357647516e-29
1.367035769e-29
1.37727701e-29
1.388388544e-29
1.400388333e-29
1.41329537e-29
1.427125082e-29
1.441899317e-29
1.457615633e-29
1.474277848e-29
1.49191326e-29
1.510520066e-29
1.530066708e-29
1.550596817e-29
1.572115727e-29
1.594559788e-29
1.617893852e-29
1.642125567e-29
1.667307782e-29
1.693393275e-29
1.720281001e-29
1.747965359e-29
1.776506869e-29
1.805865391e-29
1.835939175e-29
1.866730698e-29
1.898272024e-29
1.930517405e-29
1.963472531e-29
1.997163943e-29
2.031646848e-29
2.066951828e-29
2.103038985e-29
2.140042977e-29
2.17827429e-29
2.218038366e-29
2.259900964e-29
2.304840835e-29
2.354629008e-29
2.412766679e-29
2.486026931e-29
2.586414417e-29
2.743585525e-29
3.259162241e-29
1.307200267e-29
1.313412825e-29
1.321024965e-29
1.327568286e-29
1.334585179e-29
1.342331692e-29
1.350834753e-29
1.360136375e-29
1.370282614e-29
1.381290484e-29
1.39317764e-29
1.405962757e-29
1.419660944e-29
1.434293653e-29
1.449858286e-29
1.466358448e-29
1.48382094e-29
1.502243736e-29
1.521595439e-29
1.541918979e-29
1.563219318e-29
1.585433237e-29
1.608525785e-29
1.63250434e-29
1.657420841e-29
1.68322824e-29
1.709826473e-29
1.737209847e-29
1.765437888e-29
1.794470587e-29
1.824207248e-29
1.854650146e-29
1.885830693e-29
1.917703532e-29
1.950274096e-29
1.983568444e-29
2.017640892e-29
2.052521381e-29
2.088170373e-29
2.124720732e-29
2.162478782e-29
2.201745797e-29
2.243079981e-29
2.287446897e-29
2.336593667e-29
2.393973576e-29
2.466264998e-29
2.565300097e-29
2.720302348e-29
3.228309532e-29
1.300819133e-29
1.3069761e-29
1.314518907e-29
1.321002514e-29
1.327955117e-29
1.335630342e-29
1.344054812e-29
1.353270078e-29
1.363321592e-29
1.374226165e-29
1.386001139e-29
1.398664845e-29
1.412232151e-29
1.426724099e-29
1.442137895e-29
1.458476999e-29
1.475767737e-29
1.494007837e-29
1.513166094e-29
1.533284747e-29
1.554368413e-29
1.576354333e-29
1.599207727e-29
1.622935714e-29
1.647589363e-29
1.673121868e-29
1.699434045e-29
1.726520126e-29
1.754438686e-29
1.783149927e-29
1.812554114e-29
1.84265334e-29
1.873478441e-29
1.904984427e-29
1.9371765e-29
1.970080243e-29
2.003749135e-29
2.038212525e-29
2.073431298e-29
2.109536593e-29
2.146830677e-29
2.185610927e-29
2.226428291e-29
2.270235783e-29
2.318757531e-29
2.375401333e-29
2.446755844e-29
2.54448961e-29
2.697418066e-29
3.198226405e-29
1.294464761e-29
1.300565334e-29
1.308038622e-29
1.31446253e-29
1.32135096e-29
1.328955081e-29
1.337301194e-29
1.346430377e-29
1.356387546e-29
1.367189238e-29
1.37885251e-29
1.391395379e-29
1.404832425e-29
1.419184315e-29
1.434448123e-29
1.450627105e-29
1.467747123e-29
1.48580572e-29
1.504771818e-29
1.524687019e-29
1.545555623e-29
1.567315303e-29
1.589931447e-29
1.613410902e-29
1.637803925e-29
1.663063936e-29
1.689092654e-29
1.715884182e-29
1.743496211e-29
1.771889121e-29
1.800964138e-29
1.830723153e-29
1.861196438e-29
1.89233935e-29
1.924156829e-29
1.956674006e-29
1.989943502e-29
2.023994074e-29
2.058786901e-29
2.094451363e-29
2.131285703e-29
2.169583216e-29
2.209887473e-29
2.253138666e-29
2.301037636e-29
2.3569457e-29
2.427359998e-29
2.523782166e-29
2.674607153e-29
3.168090281e-29
1.288139727e-29
1.294184928e-29
1.301589582e-29
1.307954268e-29
1.314778939e-29
1.322312368e-29
1.330580571e-29
1.33962419e-29
1.34948766e-29
1.360187177e-29
1.371739538e-29
1.38416242e-29
1.397470179e-29
1.411683087e-29
1.426798088e-29
1.442818249e-29
1.459768989e-29
1.477647673e-29
1.496423347e-29
1.516136998e-29
1.536792662e-29
1.558328394e-29
1.58070975e-29
1.603943329e-29
1.628078594e-29
1.653069214e-29
1.678817754e-29
1.705318261e-29
1.732627539e-29
1.760706137e-29
1.789456245e-29
1.818879575e-29
1.849005836e-29
1.879790738e-29
1.911239004e-29
1.94337529e-29
1.976251416e-29
2.009895567e-29
2.044269283e-29
2.079500219e-29
2.115882667e-29
2.153706093e-29
2.193506893e-29
2.236212839e-29
2.283502302e-29
2.338691816e-29
2.408190698e-29
2.503340466e-29
2.652134903e-29
3.138558986e-29
1.28184236e-29
1.287831876e-29
1.295168011e-29
1.301473723e-29
1.308234978e-29
1.315698161e-29
1.323888972e-29
1.332847592e-29
1.342617936e-29
1.35321594e-29
1.364658126e-29
1.376961872e-29
1.390141259e-29
1.404216206e-29
1.419183531e-29
1.435046104e-29
1.451828911e-29
1.469529144e-29
1.48811598e-29
1.507629791e-29
1.528074339e-29
1.549388103e-29
1.571536802e-29
1.594526769e-29
1.618406704e-29
1.643130533e-29
1.668601668e-29
1.694814048e-29
1.721823626e-29
1.749591159e-29
1.778019757e-29
1.80711094e-29
1.836893879e-29
1.867324611e-29
1.898407647e-29
1.93016717e-29
1.962654189e-29
1.995896331e-29
2.029855416e-29
2.064657355e-29
2.100592542e-29
2.137946498e-29
2.177248419e-29
2.219413618e-29
2.266097838e-29
2.320572519e-29
2.389158337e-29
2.483035249e-29
2.629789728e-29
3.109121908e-29
1.275574321e-29
1.281508959e-29
1.28877738e-29
1.29502464e-29
1.301722993e-29
1.309116455e-29
1.317230443e-29
1.326104686e-29
1.335782628e-29
1.346279987e-29
1.357612962e-29
1.369798589e-29
1.38285072e-29
1.396788932e-29
1.411609915e-29
1.427316344e-29
1.44393279e-29
1.46145627e-29
1.479856107e-29
1.499172074e-29
1.51940767e-29
1.540501785e-29
1.562420295e-29
1.585169286e-29
1.608796724e-29
1.633256755e-29
1.658453669e-29
1.684381297e-29
1.711094764e-29
1.738555014e-29
1.766666079e-29
1.795429335e-29
1.824873394e-29
1.854954603e-29
1.885677321e-29
1.917065266e-29
1.94916861e-29
1.982014495e-29
2.015565047e-29
2.049944441e-29
2.085439315e-29
2.122331371e-29
2.161142758e-29
2.202776754e-29
2.24886705e-29
2.30264118e-29
2.370334103e-29
2.462969426e-29
2.607741296e-29
3.080185125e-29
1.269334078e-29
1.275213896e-29
1.282414917e-29
1.288604113e-29
1.295240026e-29
1.302564334e-29
1.310602145e-29
1.319392738e-29
1.328979051e-29
1.339376553e-29
1.350601173e-29
1.362669664e-29
1.375595611e-29
1.389398253e-29
1.40407416e-29
1.419625823e-29
1.436077392e-29
1.453425732e-29
1.471640294e-29
1.490760252e-29
1.510788857e-29
1.531665421e-29
1.553355981e-29
1.575866368e-29
1.599243816e-29
1.623442736e-29
1.648368254e-29
1.674014089e-29
1.700434554e-29
1.72759081e-29
1.755387784e-29
1.78382667e-29
1.81293557e-29
1.842671159e-29
1.873037578e-29
1.904058099e-29
1.935782112e-29
1.968236231e-29
2.001382851e-29
2.035344448e-29
2.070403879e-29
2.106839018e-29
2.145165014e-29
2.18627305e-29
2.231774842e-29
2.284854184e-29
2.351660083e-29
2.443059643e-29
2.585852961e-29
3.051429222e-29
1.263122762e-29
1.268948484e-29
1.276082842e-29
1.282214497e-29
1.288788517e-29
1.296044298e-29
1.304006605e-29
1.312714298e-29
1.322209817e-29
1.33250836e-29
1.343625629e-29
1.355578041e-29
1.368378963e-29
1.382047294e-29
1.396579482e-29
1.411977882e-29
1.42826621e-29
1.445441171e-29
1.463472338e-29
1.4823983e-29
1.502222073e-29
1.522883388e-29
1.544348437e-29
1.566622811e-29
1.589753028e-29
1.613693764e-29
1.638350976e-29
1.663718259e-29
1.689849153e-29
1.71670503e-29
1.744191701e-29
1.772310209e-29
1.801088109e-29
1.830482454e-29
1.860497179e-29
1.891155094e-29
1.922504868e-29
1.95457253e-29
1.987320819e-29
2.020870531e-29
2.055500843e-29
2.091485917e-29
2.129334003e-29
2.169924577e-29
2.214847807e-29
2.267244679e-29
2.33318067e-29
2.423370434e-29
2.564232014e-29
3.0231064e-29
1.256939946e-29
1.262711461e-29
1.269779497e-29
1.275854076e-29
1.282366719e-29
1.289554531e-29
1.297441975e-29
1.306067472e-29
1.315472967e-29
1.325673418e-29
1.336684267e-29
1.348521655e-29
1.36119869e-29
1.374733949e-29
1.389123766e-29
1.404370315e-29
1.420496913e-29
1.437500118e-29
1.455349634e-29
1.474083472e-29
1.49370441e-29
1.514152605e-29
1.535394407e-29
1.557435162e-29
1.580320687e-29
1.604005925e-29
1.628397652e-29
1.65348936e-29
1.679333805e-29
1.705892584e-29
1.733072382e-29
1.760874071e-29
1.789324717e-29
1.8183817e-29
1.848048749e-29
1.878348244e-29
1.909328101e-29
1.941013844e-29
1.973368477e-29
2.006511148e-29
2.040717365e-29
2.076257569e-29
2.113633222e-29
2.153712049e-29
2.198062887e-29
2.24978428e-29
2.314858334e-29
2.403848052e-29
2.542790341e-29
2.995013749e-29
1.250785748e-29
1.256503949e-29
1.263506431e-29
1.269524499e-29
1.275976335e-29
1.283096724e-29
1.29091001e-29
1.299454052e-29
1.308770325e-29
1.31887358e-29
1.329778988e-29
1.341502407e-29
1.354056722e-29
1.367460172e-29
1.381708975e-29
1.396805147e-29
1.41277161e-29
1.429604762e-29
1.44727445e-29
1.465818123e-29
1.485238324e-29
1.505475629e-29
1.526496553e-29
1.548306207e-29
1.570949706e-29
1.594382278e-29
1.618511514e-29
1.643330771e-29
1.668892062e-29
1.695157221e-29
1.722033799e-29
1.74952248e-29
1.777649883e-29
1.806373692e-29
1.83569744e-29
1.865643101e-29
1.896257874e-29
1.92756676e-29
1.959533029e-29
1.992274242e-29
2.026062257e-29
2.06116398e-29
2.0980742e-29
2.137649016e-29
2.181436395e-29
2.232493425e-29
2.296720709e-29
2.384532892e-29
2.521595148e-29
2.96730935e-29
1.244659447e-29
1.250324614e-29
1.257262018e-29
1.263224013e-29
1.269615557e-29
1.276669184e-29
1.284408945e-29
1.292872268e-29
1.302100147e-29
1.312107098e-29
1.322908041e-29
1.334518566e-29
1.346951309e-29
1.360224197e-29
1.374333338e-29
1.389280578e-29
1.405088453e-29
1.42175322e-29
1.439244862e-29
1.457600266e-29
1.47682175e-29
1.496850312e-29
1.517652628e-29
1.539233577e-29
1.561637593e-29
1.584820174e-29
1.608689718e-29
1.633239488e-29
1.658520738e-29
1.684495527e-29
1.711072269e-29
1.738251487e-29
1.766059328e-29