/*--------------------------------*- C++ -*----------------------------------*\
| =========                 |                                                 |
| \\      /  F ield         | OpenFOAM: The Open Source CFD Toolbox           |
|  \\    /   O peration     | Version:  5.x                                   |
|   \\  /    A nd           | Web:      www.OpenFOAM.org                      |
|    \\/     M anipulation  |                                                 |
\*---------------------------------------------------------------------------*/
FoamFile
{
    version     2.0;
    format      ascii;
    class       volScalarField;
    location    "0.01";
    object      kstar;
}
// * * * * * * * * * * * * * * * * * * * * * * * * * * * * * * * * * * * * * //

dimensions      [0 0 0 0 0 0 0];

internalField   nonuniform List<scalar> 
7950
(
0.9073444302
0.5221794411
0.7315919266
0.7560298485
0.6545297109
1.582151619
0.8215628311
1.764253053
0.6484192959
1.870646527
1.868316576
1.082841412
1.393101531
0.65869233
1.187519953
1.64392822
0.776349847
0.6095115643
0.8365393044
3.4295125
0.5696965132
1.245396632
1.519470418
0.3572073477
1.024507689
2.003994978
0.40856969
1.290286126
11.3658002
0.5008288457
24.55037362
8.765195644
1.761381297
0.7534184395
19.71198236
3.761955559
48.13304503
288.230473
38.28401489
2.773416612
180.5822725
0.8520253763
1.335855685
43.98094366
2.737193034
2594.761114
-171.941621
-2.683939912
-2.056835619
526.1209212
-11.00945227
-651.5839071
-10.956843
-10.9324159
-10.86844448
-10.7604535
-15.54659861
-10.55022045
-10.43852472
-10.27966245
-10.12297045
-9.952810556
-9.769703267
-9.574025642
-9.366361678
-9.148278322
-8.955488654
-8.682677013
-8.460458002
-8.181483198
-7.922706103
-7.654352671
-7.383050527
42.40938145
-6.829912559
-6.550043585
-6.372277952
-5.988680901
-5.709142952
-5.447120617
-5.15713413
-4.886495069
-4.620596194
-4.360313977
-4.106247408
-3.859282943
-3.620019424
-3.389049096
-3.166897208
-2.954019506
-2.750800694
-2.557553966
-2.374521551
-2.201876721
-2.039726708
-1.888117286
-1.74703854
-1.616432282
-1.496201113
15396.49124
-3.881604168
-3.878242104
-3.87085047
-3.859649761
-3.844704363
-3.826071338
-3.803812913
-3.77799921
-3.7487106
-3.716036647
-3.680076722
-3.640939663
-3.598743465
-3.553614904
-3.505689102
-3.455109042
-3.402025048
-3.346594213
-3.288979809
-3.229350633
-3.167880373
-3.104746885
-3.04013149
-2.974310555
-2.907193123
-2.839243373
-2.770556974
-2.701320105
-2.631719977
-2.561940434
-2.492163001
-2.42256578
-2.353322724
-2.28460295
-2.216570066
-2.149381572
-2.08318826
-2.018133692
-1.954353713
-1.891976022
-1.83111978
-1.771895277
-1.714403638
-1.658736562
-1.604976092
-1.553194388
-1.5034535
-1.455805102
-1.410290158
59718.87867
-2.309671578
-2.308538128
-2.306047472
-2.302270782
-2.297228442
-2.290937133
-2.28341462
-2.274680905
-2.264758594
-2.253673007
-2.241452183
-2.228126842
-2.213730309
-2.198298426
-2.181869442
-2.164483898
-2.146184496
-2.127015967
-2.107024922
-2.086259705
-2.064770234
-2.042607835
-2.019825083
-1.996479782
-1.972613999
-1.94829548
-1.923575874
-1.898511356
-1.873158282
-1.847573011
-1.821811731
-1.795930274
-1.769983947
-1.744027357
-1.718114248
-1.692297331
-1.666628126
-1.641156811
-1.615932069
-1.591000943
-1.566408702
-1.542198703
-1.518412271
-1.495088574
-1.47226451
-1.449974603
-1.428250902
-1.407122892
-1.386617409
60451.94169
-1.785016353
-1.784552111
-1.783531798
-1.781984198
-1.779917122
-1.777336687
-1.774249286
-1.770662065
-1.766583075
-1.762021331
-1.75698682
-1.751490493
-1.745544248
-1.739160903
-1.732354167
-1.725138599
-1.717529579
-1.709543257
-1.701196517
-1.692506926
-1.683492691
-1.674172606
-1.664566
-1.6546939
-1.644572916
-1.6342273
-1.623676782
-1.612942563
-1.602046049
-1.591008797
-1.579852453
-1.568598695
-1.557269178
-1.545885475
-1.534469018
-1.523041048
-1.511622554
-1.500234223
-1.488896383
-1.477628955
-1.466451402
-1.455382682
-1.444441198
-1.433644758
-1.423010533
-1.412555017
-1.40229399
-1.39224249
-1.382414779
121363.3436
-1.574965387
-1.574755385
-1.574293793
-1.573593538
-1.572658008
-1.571489785
-1.570091527
-1.568466189
-1.566617097
-1.56454797
-1.562262933
-1.55976651
-1.557063621
-1.554159575
-1.551060057
-1.547771114
-1.544299145
-1.540650885
-1.536833387
-1.532854006
-1.528720385
-1.524440433
-1.520022305
-1.515475036
-1.510805275
-1.50602375
-1.501138762
-1.496159407
-1.491094905
-1.48595458
-1.480747835
-1.475484133
-1.470172972
-1.464823868
-1.459446326
-1.454049822
-1.448643784
-1.443237564
-1.437840424
-1.432461511
-1.427109836
-1.42179426
-1.416523471
-1.411305965
-1.406150033
-1.401063741
-1.396054913
-1.391131122
-1.386299672
62592.59934
-1.48548789
-1.485387951
-1.48516827
-1.484834971
-1.484389633
-1.483833431
-1.483167571
-1.482393387
-1.481512376
-1.480526216
-1.479436764
-1.478246061
-1.476956325
-1.475569955
-1.474089518
-1.47251775
-1.470857548
-1.469111966
-1.467284205
-1.465377608
-1.463395654
-1.461341949
-1.459220217
-1.457034746
-1.454788122
-1.45248573
-1.450131239
-1.447728844
-1.445282808
-1.442797452
-1.440277146
-1.437726301
-1.435149355
-1.432550771
-1.429935019
-1.427306574
-1.424669903
-1.422029455
-1.419389655
-1.416754892
-1.41412951
-1.411517803
-1.408924003
-1.406352272
-1.403806696
-1.401291276
-1.39880992
-1.396366436
-1.393964526
59662.82377
-1.448668331
-1.44861952
-1.448512222
-1.448349421
-1.448131879
-1.447860157
-1.447534827
-1.447156521
-1.446725949
-1.446243905
-1.445711268
-1.445129005
-1.444498167
-1.443819891
-1.443095395
-1.442325977
-1.441513013
-1.440657954
-1.439762321
-1.438827708
-1.437855769
-1.436848225
-1.435806853
-1.434733864
-1.433630006
-1.432498347
-1.431340483
-1.430158427
-1.428954228
-1.427729968
-1.426487752
-1.425229711
-1.423957992
-1.422674757
-1.421382178
-1.420082431
-1.418777694
-1.41747014
-1.416161937
-1.414855238
-1.413552183
-1.41225489
-1.410965453
-1.409685938
-1.408418379
-1.407164774
-1.405927081
-1.404707216
-1.403507049
31665.22192
-1.436500867
-1.436476707
-1.436423599
-1.436343016
-1.436235334
-1.436100827
-1.435939772
-1.435752479
-1.435539293
-1.435300599
-1.435036825
-1.434748443
-1.434435964
-1.43409994
-1.433740967
-1.433359675
-1.432956735
-1.432532856
-1.432088779
-1.431625281
-1.431143171
-1.430643289
-1.430126504
-1.429594066
-1.429045834
-1.428483818
-1.42790863
-1.427321258
-1.426722709
-1.426114003
-1.425496177
-1.424870279
-1.424237367
-1.423598506
-1.422954769
-1.42230723
-1.421656968
-1.421005058
-1.420352575
-1.419700589
-1.419050163
-1.418402352
-1.4177582
-1.417118738
-1.416484985
-1.41585794
-1.415238587
-1.414627888
-1.414026785
23319.17857
-1.436315686
-1.436303646
-1.43627718
-1.436237021
-1.436183357
-1.436116321
-1.436036053
-1.435942705
-1.435836446
-1.435717467
-1.43558598
-1.435442217
-1.435286432
-1.435118896
-1.434939903
-1.434749766
-1.434548817
-1.434337404
-1.434115895
-1.433884675
-1.433644143
-1.433394714
-1.43313682
-1.432871254
-1.432597423
-1.432316846
-1.432029651
-1.43173633
-1.43143738
-1.43113331
-1.430824635
-1.430511873
-1.430195553
-1.429876203
-1.429554358
-1.429230552
-1.428905324
-1.428579208
-1.428252742
-1.42792646
-1.427600893
-1.427276567
-1.426954007
-1.426633728
-1.42631624
-1.426002045
-1.425691637
-1.425385499
-1.425084105
14244.41013
-1.44208657
-1.442080549
-1.442067313
-1.442047231
-1.442020393
-1.441986869
-1.441946726
-1.44190004
-1.441846897
-1.44178739
-1.441721626
-1.441649719
-1.441571796
-1.441487992
-1.441398454
-1.441303337
-1.441202806
-1.441097036
-1.440986208
-1.440870515
-1.440750156
-1.440625337
-1.440496274
-1.44036354
-1.440226304
-1.44008586
-1.439942092
-1.439795246
-1.439645571
-1.43949332
-1.439338749
-1.439182119
-1.439023693
-1.438863734
-1.438702511
-1.438540291
-1.438377341
-1.438213932
-1.43805033
-1.437886804
-1.43772362
-1.437561041
-1.43739933
-1.437238745
-1.437079543
-1.436921975
-1.436766288
-1.436612727
-1.436461529
10232.09846
-1.4508712
-1.450868183
-1.450861553
-1.450851491
-1.450838046
-1.450821251
-1.45080114
-1.45077775
-1.450751125
-1.450721312
-1.450688363
-1.450652336
-1.450613293
-1.450571304
-1.45052644
-1.45047878
-1.450428406
-1.450375405
-1.450319868
-1.450261892
-1.450201575
-1.450139022
-1.450074339
-1.450007638
-1.449939031
-1.449868637
-1.449796574
-1.449722966
-1.449647936
-1.449571611
-1.449494121
-1.449415594
-1.449336163
-1.449255961
-1.44917512
-1.449093776
-1.449012062
-1.448930113
-1.448848063
-1.448766047
-1.448684199
-1.448602649
-1.448521531
-1.448440973
-1.448361104
-1.448282051
-1.448203938
-1.448126887
-1.448051017
6967.85929
-1.461213708
-1.461212195
-1.46120887
-1.461203825
-1.461197083
-1.461188662
-1.461178577
-1.461166848
-1.461153497
-1.461138547
-1.461122025
-1.461103958
-1.46108438
-1.461063323
-1.461040825
-1.461016924
-1.460991662
-1.460965082
-1.460937231
-1.460908155
-1.460877905
-1.460846532
-1.460814092
-1.460780638
-1.460746228
-1.460710921
-1.460674776
-1.460637855
-1.46060022
-1.460561935
-1.460523064
-1.460483673
-1.460443827
-1.460403594
-1.460363039
-1.46032223
-1.460281235
-1.460240121
-1.460198955
-1.460157805
-1.460116738
-1.46007582
-1.460035118
-1.459994695
-1.459954617
-1.459914948
-1.459875749
-1.459837081
-1.459799006
5154.662208
-1.472389024
-1.472388265
-1.472386597
-1.472384066
-1.472380684
-1.472376459
-1.4723714
-1.472365516
-1.472358818
-1.472351317
-1.472343028
-1.472333965
-1.472324142
-1.472313579
-1.472302291
-1.472290301
-1.472277626
-1.472264291
-1.472250318
-1.47223573
-1.472220553
-1.472204813
-1.472188537
-1.472171752
-1.472154487
-1.472136772
-1.472118637
-1.472100112
-1.472081228
-1.472062019
-1.472042515
-1.472022749
-1.472002755
-1.471982567
-1.471962217
-1.471941739
-1.471921168
-1.471900536
-1.471879879
-1.471859229
-1.47183862
-1.471818086
-1.47179766
-1.471777374
-1.47175726
-1.471737351
-1.471717679
-1.471698272
-1.471679163
3782.824612
-1.484035047
-1.484034666
-1.484033829
-1.484032559
-1.484030862
-1.484028742
-1.484026203
-1.48402325
-1.484019889
-1.484016126
-1.484011966
-1.484007418
-1.484002489
-1.483997188
-1.483991524
-1.483985507
-1.483979147
-1.483972456
-1.483965444
-1.483958123
-1.483950507
-1.483942609
-1.483934441
-1.483926018
-1.483917354
-1.483908464
-1.483899363
-1.483890067
-1.48388059
-1.48387095
-1.483861162
-1.483851243
-1.483841209
-1.483831077
-1.483820864
-1.483810587
-1.483800263
-1.483789909
-1.483779542
-1.483769178
-1.483758835
-1.48374853
-1.483738278
-1.483728097
-1.483718002
-1.48370801
-1.483698136
-1.483688396
-1.483678805
2900.334009
-1.495970894
-1.495970703
-1.495970283
-1.495969645
-1.495968794
-1.49596773
-1.495966456
-1.495964974
-1.495963287
-1.495961398
-1.495959311
-1.495957028
-1.495954555
-1.495951894
-1.495949052
-1.495946032
-1.49594284
-1.495939482
-1.495935963
-1.495932289
-1.495928466
-1.495924502
-1.495920403
-1.495916176
-1.495911828
-1.495907366
-1.495902798
-1.495898133
-1.495893377
-1.495888538
-1.495883626
-1.495878648
-1.495873612
-1.495868527
-1.495863401
-1.495858243
-1.495853062
-1.495847865
-1.495842662
-1.49583746
-1.495832269
-1.495827096
-1.495821951
-1.495816841
-1.495811774
-1.495806759
-1.495801804
-1.495796915
-1.495792101
2242.873736
-1.508106399
-1.508106303
-1.508106092
-1.508105772
-1.508105345
-1.508104811
-1.508104172
-1.508103428
-1.508102581
-1.508101633
-1.508100586
-1.50809944
-1.508098199
-1.508096863
-1.508095437
-1.508093921
-1.508092319
-1.508090633
-1.508088867
-1.508087023
-1.508085105
-1.508083115
-1.508081058
-1.508078936
-1.508076754
-1.508074515
-1.508072222
-1.50806988
-1.508067493
-1.508065065
-1.508062599
-1.508060101
-1.508057573
-1.508055021
-1.508052448
-1.508049859
-1.508047259
-1.50804465
-1.508042039
-1.508039428
-1.508036822
-1.508034226
-1.508031644
-1.508029079
-1.508026536
-1.508024018
-1.508021531
-1.508019077
-1.508016661
1786.841465
-1.520396872
-1.520396824
-1.520396718
-1.520396557
-1.520396343
-1.520396075
-1.520395754
-1.52039538
-1.520394956
-1.52039448
-1.520393954
-1.520393379
-1.520392756
-1.520392086
-1.52039137
-1.520390609
-1.520389805
-1.520388959
-1.520388072
-1.520387147
-1.520386184
-1.520385185
-1.520384153
-1.520383088
-1.520381993
-1.520380869
-1.520379718
-1.520378543
-1.520377345
-1.520376126
-1.520374888
-1.520373634
-1.520372366
-1.520371085
-1.520369793
-1.520368494
-1.520367189
-1.52036588
-1.520364569
-1.520363259
-1.520361951
-1.520360648
-1.520359352
-1.520358065
-1.520356788
-1.520355525
-1.520354277
-1.520353045
-1.520351832
1434.776288
-1.532820436
-1.532820412
-1.532820359
-1.532820278
-1.532820171
-1.532820036
-1.532819875
-1.532819688
-1.532819474
-1.532819236
-1.532818972
-1.532818683
-1.53281837
-1.532818034
-1.532817674
-1.532817293
-1.532816889
-1.532816464
-1.53281602
-1.532815555
-1.532815072
-1.53281457
-1.532814052
-1.532813518
-1.532812968
-1.532812404
-1.532811826
-1.532811236
-1.532810635
-1.532810023
-1.532809402
-1.532808773
-1.532808136
-1.532807493
-1.532806845
-1.532806193
-1.532805538
-1.532804881
-1.532804223
-1.532803565
-1.532802909
-1.532802255
-1.532801604
-1.532800958
-1.532800317
-1.532799683
-1.532799056
-1.532798438
-1.53279783
1173.329524
-1.54536667
-1.545366658
-1.545366631
-1.545366591
-1.545366536
-1.545366469
-1.545366388
-1.545366294
-1.545366187
-1.545366067
-1.545365935
-1.54536579
-1.545365633
-1.545365464
-1.545365284
-1.545365092
-1.545364889
-1.545364676
-1.545364453
-1.54536422
-1.545363977
-1.545363726
-1.545363465
-1.545363197
-1.545362921
-1.545362638
-1.545362348
-1.545362052
-1.54536175
-1.545361443
-1.545361131
-1.545360816
-1.545360496
-1.545360173
-1.545359848
-1.545359521
-1.545359192
-1.545358862
-1.545358532
-1.545358202
-1.545357872
-1.545357544
-1.545357217
-1.545356893
-1.545356571
-1.545356253
-1.545355939
-1.545355628
-1.545355323
969.2983861
-1.558030905
-1.558030898
-1.558030885
-1.558030865
-1.558030838
-1.558030804
-1.558030763
-1.558030716
-1.558030662
-1.558030602
-1.558030536
-1.558030463
-1.558030384
-1.558030299
-1.558030209
-1.558030113
-1.558030011
-1.558029904
-1.558029792
-1.558029675
-1.558029553
-1.558029427
-1.558029296
-1.558029161
-1.558029023
-1.558028881
-1.558028735
-1.558028587
-1.558028435
-1.558028281
-1.558028125
-1.558027966
-1.558027806
-1.558027644
-1.55802748
-1.558027316
-1.558027151
-1.558026985
-1.55802682
-1.558026654
-1.558026488
-1.558026324
-1.55802616
-1.558025997
-1.558025836
-1.558025676
-1.558025518
-1.558025362
-1.558025209
811.2741788
-1.570811366
-1.570811363
-1.570811357
-1.570811346
-1.570811333
-1.570811316
-1.570811295
-1.570811272
-1.570811245
-1.570811215
-1.570811181
-1.570811145
-1.570811105
-1.570811063
-1.570811017
-1.570810969
-1.570810918
-1.570810864
-1.570810808
-1.570810749
-1.570810688
-1.570810625
-1.570810559
-1.570810491
-1.570810422
-1.57081035
-1.570810277
-1.570810203
-1.570810127
-1.570810049
-1.570809971
-1.570809891
-1.570809811
-1.570809729
-1.570809647
-1.570809565
-1.570809482
-1.570809399
-1.570809316
-1.570809232
-1.570809149
-1.570809067
-1.570808984
-1.570808903
-1.570808822
-1.570808741
-1.570808662
-1.570808584
-1.570808507
685.1437048
-1.58370774
-1.583707739
-1.583707735
-1.58370773
-1.583707723
-1.583707715
-1.583707705
-1.583707693
-1.583707679
-1.583707664
-1.583707647
-1.583707629
-1.583707609
-1.583707588
-1.583707565
-1.583707541
-1.583707515
-1.583707488
-1.58370746
-1.58370743
-1.5837074
-1.583707368
-1.583707335
-1.583707301
-1.583707266
-1.58370723
-1.583707193
-1.583707156
-1.583707118
-1.583707079
-1.583707039
-1.583707
-1.583706959
-1.583706918
-1.583706877
-1.583706836
-1.583706794
-1.583706752
-1.58370671
-1.583706669
-1.583706627
-1.583706585
-1.583706544
-1.583706503
-1.583706462
-1.583706422
-1.583706382
-1.583706343
-1.583706304
584.2187498
-1.59672045
-1.596720449
-1.596720448
-1.596720445
-1.596720442
-1.596720437
-1.596720432
-1.596720426
-1.596720419
-1.596720412
-1.596720403
-1.596720394
-1.596720384
-1.596720373
-1.596720362
-1.59672035
-1.596720337
-1.596720323
-1.596720309
-1.596720294
-1.596720279
-1.596720263
-1.596720247
-1.596720229
-1.596720212
-1.596720194
-1.596720176
-1.596720157
-1.596720138
-1.596720118
-1.596720098
-1.596720078
-1.596720058
-1.596720037
-1.596720017
-1.596719996
-1.596719975
-1.596719954
-1.596719933
-1.596719912
-1.596719891
-1.59671987
-1.596719849
-1.596719828
-1.596719808
-1.596719788
-1.596719768
-1.596719748
-1.596719728
502.1393712
-1.609850297
-1.609850297
-1.609850296
-1.609850295
-1.609850293
-1.609850291
-1.609850288
-1.609850285
-1.609850282
-1.609850278
-1.609850274
-1.609850269
-1.609850264
-1.609850259
-1.609850253
-1.609850247
-1.60985024
-1.609850234
-1.609850227
-1.609850219
-1.609850211
-1.609850203
-1.609850195
-1.609850187
-1.609850178
-1.609850169
-1.60985016
-1.60985015
-1.609850141
-1.609850131
-1.609850121
-1.609850111
-1.609850101
-1.609850091
-1.60985008
-1.60985007
-1.609850059
-1.609850049
-1.609850038
-1.609850028
-1.609850017
-1.609850007
-1.609849997
-1.609849986
-1.609849976
-1.609849966
-1.609849956
-1.609849947
-1.609849937
435.1617388
-1.623098279
-1.623098279
-1.623098278
-1.623098278
-1.623098277
-1.623098276
-1.623098274
-1.623098273
-1.623098271
-1.623098269
-1.623098267
-1.623098265
-1.623098262
-1.62309826
-1.623098257
-1.623098254
-1.62309825
-1.623098247
-1.623098243
-1.62309824
-1.623098236
-1.623098232
-1.623098228
-1.623098223
-1.623098219
-1.623098215
-1.62309821
-1.623098205
-1.6230982
-1.623098196
-1.623098191
-1.623098186
-1.62309818
-1.623098175
-1.62309817
-1.623098165
-1.62309816
-1.623098154
-1.623098149
-1.623098144
-1.623098139
-1.623098133
-1.623098128
-1.623098123
-1.623098118
-1.623098113
-1.623098108
-1.623098103
-1.623098098
379.4101649
-1.636465498
-1.636465498
-1.636465498
-1.636465498
-1.636465497
-1.636465497
-1.636465496
-1.636465495
-1.636465494
-1.636465493
-1.636465492
-1.636465491
-1.63646549
-1.636465489
-1.636465487
-1.636465486
-1.636465484
-1.636465482
-1.636465481
-1.636465479
-1.636465477
-1.636465475
-1.636465473
-1.63646547
-1.636465468
-1.636465466
-1.636465464
-1.636465461
-1.636465459
-1.636465456
-1.636465454
-1.636465451
-1.636465449
-1.636465446
-1.636465444
-1.636465441
-1.636465438
-1.636465436
-1.636465433
-1.63646543
-1.636465428
-1.636465425
-1.636465423
-1.63646542
-1.636465417
-1.636465415
-1.636465412
-1.63646541
-1.636465407
332.8643588
-1.649953119
-1.649953119
-1.649953118
-1.649953118
-1.649953118
-1.649953118
-1.649953117
-1.649953117
-1.649953117
-1.649953116
-1.649953116
-1.649953115
-1.649953114
-1.649953114
-1.649953113
-1.649953112
-1.649953111
-1.649953111
-1.64995311
-1.649953109
-1.649953108
-1.649953107
-1.649953106
-1.649953105
-1.649953103
-1.649953102
-1.649953101
-1.6499531
-1.649953099
-1.649953097
-1.649953096
-1.649953095
-1.649953094
-1.649953092
-1.649953091
-1.64995309
-1.649953088
-1.649953087
-1.649953086
-1.649953084
-1.649953083
-1.649953082
-1.64995308
-1.649953079
-1.649953078
-1.649953076
-1.649953075
-1.649953074
-1.649953073
293.693971
-1.66356234
-1.66356234
-1.66356234
-1.66356234
-1.66356234
-1.66356234
-1.663562339
-1.663562339
-1.663562339
-1.663562339
-1.663562338
-1.663562338
-1.663562338
-1.663562337
-1.663562337
-1.663562337
-1.663562336
-1.663562336
-1.663562335
-1.663562335
-1.663562334
-1.663562334
-1.663562333
-1.663562333
-1.663562332
-1.663562332
-1.663562331
-1.66356233
-1.66356233
-1.663562329
-1.663562328
-1.663562328
-1.663562327
-1.663562327
-1.663562326
-1.663562325
-1.663562324
-1.663562324
-1.663562323
-1.663562322
-1.663562322
-1.663562321
-1.66356232
-1.66356232
-1.663562319
-1.663562318
-1.663562317
-1.663562317
-1.663562316
260.4882247
-1.677294389
-1.677294389
-1.677294388
-1.677294388
-1.677294388
-1.677294388
-1.677294388
-1.677294388
-1.677294388
-1.677294388
-1.677294388
-1.677294388
-1.677294387
-1.677294387
-1.677294387
-1.677294387
-1.677294387
-1.677294386
-1.677294386
-1.677294386
-1.677294386
-1.677294385
-1.677294385
-1.677294385
-1.677294385
-1.677294384
-1.677294384
-1.677294384
-1.677294383
-1.677294383
-1.677294383
-1.677294382
-1.677294382
-1.677294382
-1.677294381
-1.677294381
-1.67729438
-1.67729438
-1.67729438
-1.677294379
-1.677294379
-1.677294378
-1.677294378
-1.677294378
-1.677294377
-1.677294377
-1.677294376
-1.677294376
-1.677294375
232.167363
-1.69115051
-1.69115051
-1.69115051
-1.69115051
-1.69115051
-1.69115051
-1.69115051
-1.69115051
-1.69115051
-1.69115051
-1.69115051
-1.69115051
-1.69115051
-1.69115051
-1.69115051
-1.69115051
-1.691150509
-1.691150509
-1.691150509
-1.691150509
-1.691150509
-1.691150509
-1.691150509
-1.691150509
-1.691150509
-1.691150508
-1.691150508
-1.691150508
-1.691150508
-1.691150508
-1.691150508
-1.691150508
-1.691150507
-1.691150507
-1.691150507
-1.691150507
-1.691150507
-1.691150507
-1.691150507
-1.691150507
-1.691150507
-1.691150506
-1.691150506
-1.691150506
-1.691150506
-1.691150506
-1.691150506
-1.691150506
-1.691150506
207.91298
-1.705131968
-1.705131968
-1.705131968
-1.705131968
-1.705131968
-1.705131968
-1.705131968
-1.705131968
-1.705131968
-1.705131968
-1.705131968
-1.705131968
-1.705131968
-1.705131968
-1.705131968
-1.705131968
-1.705131968
-1.705131968
-1.705131968
-1.705131968
-1.705131968
-1.705131968
-1.705131968
-1.705131968
-1.705131968
-1.705131968
-1.705131968
-1.705131968
-1.705131967
-1.705131967
-1.705131967
-1.705131967
-1.705131967
-1.705131967
-1.705131967
-1.705131967
-1.705131967
-1.705131967
-1.705131967
-1.705131967
-1.705131967
-1.705131967
-1.705131967
-1.705131967
-1.705131967
-1.705131967
-1.705131967
-1.705131967
-1.705131967
186.9140806
-1.719240043
-1.719240043
-1.719240043
-1.719240043
-1.719240043
-1.719240043
-1.719240043
-1.719240043
-1.719240043
-1.719240043
-1.719240043
-1.719240043
-1.719240043
-1.719240043
-1.719240043
-1.719240043
-1.719240043
-1.719240043
-1.719240043
-1.719240042
-1.719240042
-1.719240042
-1.719240042
-1.719240042
-1.719240042
-1.719240042
-1.719240042
-1.719240042
-1.719240042
-1.719240042
-1.719240042
-1.719240042
-1.719240042
-1.719240042
-1.719240042
-1.719240042
-1.719240042
-1.719240042
-1.719240042
-1.719240042
-1.719240042
-1.719240042
-1.719240042
-1.719240042
-1.719240042
-1.719240042
-1.719240042
-1.719240042
-1.719240042
168.6991637
-1.733476029
-1.733476029
-1.733476029
-1.733476029
-1.733476029
-1.733476029
-1.733476029
-1.733476029
-1.733476029
-1.733476029
-1.733476029
-1.733476029
-1.733476029
-1.733476029
-1.733476029
-1.733476029
-1.733476029
-1.733476029
-1.733476029
-1.733476029
-1.733476029
-1.733476029
-1.733476029
-1.733476029
-1.733476029
-1.733476028
-1.733476028
-1.733476028
-1.733476028
-1.733476028
-1.733476028
-1.733476028
-1.733476028
-1.733476028
-1.733476028
-1.733476028
-1.733476028
-1.733476028
-1.733476028
-1.733476028
-1.733476028
-1.733476028
-1.733476028
-1.733476028
-1.733476028
-1.733476028
-1.733476028
-1.733476028
-1.733476028
152.7729221
-1.747841238
-1.747841238
-1.747841238
-1.747841238
-1.747841238
-1.747841238
-1.747841238
-1.747841238
-1.747841238
-1.747841238
-1.747841238
-1.747841238
-1.747841238
-1.747841237
-1.747841237
-1.747841237
-1.747841237
-1.747841237
-1.747841237
-1.747841237
-1.747841237
-1.747841237
-1.747841237
-1.747841237
-1.747841237
-1.747841237
-1.747841237
-1.747841237
-1.747841237
-1.747841237
-1.747841237
-1.747841237
-1.747841237
-1.747841237
-1.747841237
-1.747841237
-1.747841237
-1.747841237
-1.747841237
-1.747841237
-1.747841237
-1.747841237
-1.747841237
-1.747841237
-1.747841237
-1.747841237
-1.747841237
-1.747841237
-1.747841237
-1.747841237
-1.762336996
-1.762336996
-1.762336996
-1.762336996
-1.762336996
-1.762336996
-1.762336996
-1.762336996
-1.762336996
-1.762336996
-1.762336996
-1.762336996
-1.762336996
-1.762336996
-1.762336996
-1.762336996
-1.762336996
-1.762336996
-1.762336996
-1.762336996
-1.762336996
-1.762336996
-1.762336996
-1.762336996
-1.762336996
-1.762336996
-1.762336996
-1.762336996
-1.762336995
-1.762336995
-1.762336995
-1.762336995
-1.762336995
-1.762336995
-1.762336995
-1.762336995
-1.762336995
-1.762336995
-1.762336995
-1.762336995
-1.762336995
-1.762336995
-1.762336995
-1.762336995
-1.762336995
-1.762336995
-1.762336995
-1.762336995
-1.762336995
-1.762336995
-1.776964646
-1.776964646
-1.776964646
-1.776964646
-1.776964646
-1.776964646
-1.776964646
-1.776964646
-1.776964646
-1.776964646
-1.776964646
-1.776964646
-1.776964646
-1.776964646
-1.776964646
-1.776964646
-1.776964646
-1.776964646
-1.776964646
-1.776964646
-1.776964646
-1.776964646
-1.776964646
-1.776964646
-1.776964646
-1.776964646
-1.776964646
-1.776964646
-1.776964646
-1.776964646
-1.776964646
-1.776964646
-1.776964645
-1.776964645
-1.776964645
-1.776964645
-1.776964645
-1.776964645
-1.776964645
-1.776964645
-1.776964645
-1.776964645
-1.776964645
-1.776964645
-1.776964645
-1.776964645
-1.776964644
-1.776964644
-1.776964644
-1.776964644
-1.791725546
-1.791725546
-1.791725546
-1.791725546
-1.791725546
-1.791725546
-1.791725546
-1.791725546
-1.791725546
-1.791725546
-1.791725546
-1.791725546
-1.791725546
-1.791725546
-1.791725546
-1.791725546
-1.791725546
-1.791725546
-1.791725546
-1.791725546
-1.791725546
-1.791725546
-1.791725546
-1.791725546
-1.791725546
-1.791725546
-1.791725546
-1.791725546
-1.791725546
-1.791725546
-1.791725546
-1.791725546
-1.791725546
-1.791725546
-1.791725546
-1.791725546
-1.791725546
-1.791725546
-1.791725546
-1.791725546
-1.791725546
-1.791725546
-1.791725546
-1.791725547
-1.791725547
-1.791725547
-1.791725547
-1.791725547
-1.791725547
-1.791725547
-1.806621068
-1.806621068
-1.806621068
-1.806621068
-1.806621068
-1.806621068
-1.806621068
-1.806621068
-1.806621068
-1.806621068
-1.806621068
-1.806621068
-1.806621068
-1.806621068
-1.806621068
-1.806621068
-1.806621068
-1.806621068
-1.806621068
-1.806621068
-1.806621068
-1.806621068
-1.806621068
-1.806621068
-1.806621068
-1.806621068
-1.806621069
-1.806621069
-1.806621069
-1.806621069
-1.806621069
-1.806621069
-1.806621069
-1.806621069
-1.806621069
-1.806621069
-1.806621069
-1.806621069
-1.806621069
-1.806621069
-1.806621069
-1.806621069
-1.806621069
-1.806621069
-1.806621069
-1.806621069
-1.806621069
-1.806621069
-1.806621069
-1.806621069
-1.821652604
-1.821652604
-1.821652604
-1.821652604
-1.821652604
-1.821652604
-1.821652604
-1.821652604
-1.821652604
-1.821652604
-1.821652604
-1.821652604
-1.821652604
-1.821652604
-1.821652604
-1.821652604
-1.821652604
-1.821652604
-1.821652604
-1.821652604
-1.821652604
-1.821652604
-1.821652604
-1.821652604
-1.821652604
-1.821652604
-1.821652604
-1.821652604
-1.821652604
-1.821652604
-1.821652604
-1.821652604
-1.821652604
-1.821652604
-1.821652604
-1.821652604
-1.821652604
-1.821652604
-1.821652604
-1.821652604
-1.821652604
-1.821652604
-1.821652605
-1.821652605
-1.821652605
-1.821652605
-1.821652605
-1.821652605
-1.821652605
-1.821652605
-1.83682156
-1.83682156
-1.83682156
-1.83682156
-1.83682156
-1.83682156
-1.83682156
-1.83682156
-1.83682156
-1.83682156
-1.83682156
-1.83682156
-1.83682156
-1.83682156
-1.83682156
-1.83682156
-1.83682156
-1.83682156
-1.83682156
-1.83682156
-1.83682156
-1.83682156
-1.83682156
-1.83682156
-1.83682156
-1.83682156
-1.83682156
-1.83682156
-1.83682156
-1.83682156
-1.83682156
-1.83682156
-1.83682156
-1.83682156
-1.83682156
-1.83682156
-1.83682156
-1.83682156
-1.83682156
-1.83682156
-1.83682156
-1.83682156
-1.83682156
-1.83682156
-1.83682156
-1.83682156
-1.83682156
-1.83682156
-1.83682156
-1.83682156
-1.852129358
-1.852129358
-1.852129358
-1.852129358
-1.852129358
-1.852129358
-1.852129358
-1.852129358
-1.852129358
-1.852129358
-1.852129358
-1.852129358
-1.852129358
-1.852129358
-1.852129358
-1.852129358
-1.852129358
-1.852129358
-1.852129358
-1.852129358
-1.852129358
-1.852129358
-1.852129358
-1.852129358
-1.852129358
-1.852129358
-1.852129358
-1.852129358
-1.852129358
-1.852129358
-1.852129358
-1.852129358
-1.852129358
-1.852129358
-1.852129358
-1.852129358
-1.852129358
-1.852129358
-1.852129358
-1.852129358
-1.852129358
-1.852129358
-1.852129358
-1.852129358
-1.852129358
-1.852129358
-1.852129358
-1.852129358
-1.852129358
-1.852129358
-1.86757744
-1.86757744
-1.86757744
-1.86757744
-1.86757744
-1.86757744
-1.86757744
-1.86757744
-1.86757744
-1.86757744
-1.86757744
-1.86757744
-1.86757744
-1.86757744
-1.86757744
-1.86757744
-1.86757744
-1.86757744
-1.86757744
-1.86757744
-1.86757744
-1.86757744
-1.86757744
-1.86757744
-1.86757744
-1.86757744
-1.86757744
-1.86757744
-1.86757744
-1.86757744
-1.86757744
-1.86757744
-1.86757744
-1.86757744
-1.86757744
-1.86757744
-1.86757744
-1.86757744
-1.86757744
-1.86757744
-1.86757744
-1.86757744
-1.86757744
-1.867577439
-1.867577439
-1.867577439
-1.867577439
-1.867577439
-1.867577439
-1.867577439
-1.883167262
-1.883167262
-1.883167262
-1.883167262
-1.883167262
-1.883167262
-1.883167262
-1.883167262
-1.883167262
-1.883167262
-1.883167262
-1.883167262
-1.883167262
-1.883167262
-1.883167262
-1.883167262
-1.883167262
-1.883167262
-1.883167262
-1.883167262
-1.883167262
-1.883167262
-1.883167262
-1.883167262
-1.883167262
-1.883167262
-1.883167262
-1.883167262
-1.883167262
-1.883167262
-1.883167262
-1.883167262
-1.883167262
-1.883167262
-1.883167262
-1.883167262
-1.883167262
-1.883167262
-1.883167262
-1.883167262
-1.883167261
-1.883167261
-1.883167261
-1.883167261
-1.883167261
-1.883167261
-1.883167261
-1.883167261
-1.883167261
-1.88316726
-1.898900299
-1.898900299
-1.898900299
-1.898900299
-1.898900299
-1.898900299
-1.898900299
-1.898900299
-1.898900299
-1.898900299
-1.898900299
-1.898900299
-1.898900299
-1.898900299
-1.898900299
-1.898900299
-1.898900299
-1.898900299
-1.898900299
-1.898900299
-1.898900299
-1.898900299
-1.898900299
-1.898900299
-1.898900299
-1.898900299
-1.898900299
-1.898900299
-1.898900299
-1.898900299
-1.898900299
-1.898900299
-1.898900299
-1.898900299
-1.898900299
-1.898900299
-1.898900299
-1.8989003
-1.8989003
-1.8989003
-1.8989003
-1.8989003
-1.8989003
-1.8989003
-1.8989003
-1.8989003
-1.8989003
-1.898900301
-1.898900301
-1.898900301
-1.914778041
-1.914778041
-1.914778041
-1.914778041
-1.914778041
-1.914778041
-1.914778041
-1.914778041
-1.914778041
-1.914778041
-1.914778041
-1.914778041
-1.914778041
-1.914778041
-1.914778041
-1.914778041
-1.914778041
-1.914778041
-1.914778041
-1.914778041