/*--------------------------------*- C++ -*----------------------------------*\
| =========                 |                                                 |
| \\      /  F ield         | OpenFOAM: The Open Source CFD Toolbox           |
|  \\    /   O peration     | Version:  5.x                                   |
|   \\  /    A nd           | Web:      www.OpenFOAM.org                      |
|    \\/     M anipulation  |                                                 |
\*---------------------------------------------------------------------------*/
FoamFile
{
    version     2.0;
    format      ascii;
    class       volScalarField;
    location    "0.01";
    object      muAir;
}
// * * * * * * * * * * * * * * * * * * * * * * * * * * * * * * * * * * * * * //

dimensions      [1 -1 -1 0 0 0 0];

internalField   nonuniform List<scalar> 
7950
(
9.708462075e-06
9.708909647e-06
9.709895334e-06
9.711396053e-06
9.713411313e-06
9.715944606e-06
9.71900149e-06
9.722589099e-06
9.72671597e-06
9.731391945e-06
9.736628117e-06
9.742436779e-06
9.748831369e-06
9.755826415e-06
9.763437459e-06
9.771680973e-06
9.780574252e-06
9.790135283e-06
9.80038259e-06
9.811335054e-06
9.823011684e-06
9.835431369e-06
9.84861258e-06
9.862573025e-06
9.877329266e-06
9.892896288e-06
9.909287013e-06
9.926511779e-06
9.944577766e-06
9.963488398e-06
9.983242702e-06
1.000383467e-05
1.002525259e-05
1.004747845e-05
1.007048729e-05
1.009424674e-05
1.011871651e-05
1.014384812e-05
1.016958471e-05
1.019586103e-05
1.022260366e-05
1.024973139e-05
1.02771559e-05
1.030478257e-05
1.033251165e-05
1.036023947e-05
1.038785995e-05
1.041526619e-05
1.044235214e-05
1.046901428e-05
1.022759467e-05
1.022781422e-05
1.022829715e-05
1.022903083e-05
1.023001301e-05
1.023124271e-05
1.023271931e-05
1.023444223e-05
1.023641091e-05
1.023862474e-05
1.024108298e-05
1.02437848e-05
1.024672921e-05
1.024991505e-05
1.025334097e-05
1.025700537e-05
1.026090642e-05
1.026504199e-05
1.026940963e-05
1.027400653e-05
1.027882951e-05
1.028387494e-05
1.028913873e-05
1.029461628e-05
1.030030245e-05
1.03061915e-05
1.031227705e-05
1.031855206e-05
1.032500874e-05
1.033163856e-05
1.033843216e-05
1.034537932e-05
1.035246893e-05
1.035968894e-05
1.036702628e-05
1.037446686e-05
1.038199549e-05
1.038959585e-05
1.039725041e-05
1.040494041e-05
1.041264572e-05
1.042034482e-05
1.042801468e-05
1.043563062e-05
1.04431662e-05
1.045059299e-05
1.045788035e-05
1.046499512e-05
1.047190124e-05
1.047855926e-05
1.037378108e-05
1.037388426e-05
1.037411113e-05
1.037445556e-05
1.037491623e-05
1.037549229e-05
1.037618298e-05
1.037698748e-05
1.037790489e-05
1.037893419e-05
1.038007423e-05
1.038132377e-05
1.038268138e-05
1.038414553e-05
1.038571454e-05
1.038738654e-05
1.038915956e-05
1.03910314e-05
1.039299975e-05
1.03950621e-05
1.039721574e-05
1.03994578e-05
1.040178521e-05
1.040419469e-05
1.040668278e-05
1.040924578e-05
1.041187981e-05
1.041458074e-05
1.041734422e-05
1.04201657e-05
1.042304037e-05
1.04259632e-05
1.042892892e-05
1.043193204e-05
1.043496682e-05
1.04380273e-05
1.044110728e-05
1.044420034e-05
1.044729985e-05
1.045039899e-05
1.045349073e-05
1.045656787e-05
1.045962308e-05
1.046264887e-05
1.046563771e-05
1.046858199e-05
1.047147412e-05
1.047430659e-05
1.047707203e-05
1.047976332e-05
1.043082943e-05
1.043087911e-05
1.043098832e-05
1.043115409e-05
1.04313757e-05
1.043165266e-05
1.043198452e-05
1.043237075e-05
1.043281077e-05
1.043330396e-05
1.043384958e-05
1.043444684e-05
1.043509488e-05
1.043579274e-05
1.043653939e-05
1.043733373e-05
1.043817455e-05
1.04390606e-05
1.043999053e-05
1.044096289e-05
1.044197617e-05
1.044302879e-05
1.044411906e-05
1.044524523e-05
1.044640546e-05
1.044759785e-05
1.04488204e-05
1.045007104e-05
1.045134764e-05
1.045264799e-05
1.045396979e-05
1.045531072e-05
1.045666835e-05
1.045804021e-05
1.045942379e-05
1.04608165e-05
1.046221574e-05
1.046361884e-05
1.046502311e-05
1.046642585e-05
1.046782433e-05
1.046921581e-05
1.047059757e-05
1.047196689e-05
1.047332109e-05
1.047465752e-05
1.047597357e-05
1.047726672e-05
1.047853452e-05
1.047977461e-05
1.045588014e-05
1.045590441e-05
1.045595777e-05
1.045603876e-05
1.0456147e-05
1.045628224e-05
1.045644423e-05
1.045663269e-05
1.04568473e-05
1.045708772e-05
1.045735354e-05
1.045764434e-05
1.045795966e-05
1.045829897e-05
1.045866172e-05
1.045904733e-05
1.045945517e-05
1.045988456e-05
1.04603348e-05
1.046080514e-05
1.04612948e-05
1.046180297e-05
1.046232879e-05
1.046287137e-05
1.04634298e-05
1.046400313e-05
1.046459038e-05
1.046519053e-05
1.046580256e-05
1.046642541e-05
1.046705798e-05
1.046769918e-05
1.046834789e-05
1.046900295e-05
1.046966322e-05
1.047032753e-05
1.04709947e-05
1.047166354e-05
1.047233288e-05
1.047300152e-05
1.047366828e-05
1.047433198e-05
1.047499145e-05
1.047564553e-05
1.047629308e-05
1.047693299e-05
1.047756414e-05
1.047818547e-05
1.047879594e-05
1.047939453e-05
1.046733605e-05
1.046734801e-05
1.04673743e-05
1.046741421e-05
1.046746754e-05
1.046753416e-05
1.046761395e-05
1.046770675e-05
1.046781241e-05
1.046793075e-05
1.046806156e-05
1.046820462e-05
1.046835969e-05
1.04685265e-05
1.046870478e-05
1.046889422e-05
1.04690945e-05
1.046930528e-05
1.04695262e-05
1.04697569e-05
1.046999696e-05
1.0470246e-05
1.047050358e-05
1.047076926e-05
1.047104258e-05
1.047132309e-05
1.047161029e-05
1.04719037e-05
1.047220282e-05
1.047250712e-05
1.047281609e-05
1.04731292e-05
1.04734459e-05
1.047376566e-05
1.047408792e-05
1.047441214e-05
1.047473775e-05
1.047506421e-05
1.047539095e-05
1.047571742e-05
1.047604307e-05
1.047636736e-05
1.047668973e-05
1.047700965e-05
1.047732659e-05
1.047764002e-05
1.047794945e-05
1.047825436e-05
1.047855427e-05
1.04788487e-05
1.047253479e-05
1.047254071e-05
1.047255374e-05
1.04725735e-05
1.047259991e-05
1.04726329e-05
1.047267241e-05
1.047271836e-05
1.047277068e-05
1.047282926e-05
1.047289401e-05
1.047296481e-05
1.047304155e-05
1.047312409e-05
1.047321228e-05
1.047330599e-05
1.047340504e-05
1.047350926e-05
1.047361849e-05
1.047373252e-05
1.047385117e-05
1.047397423e-05
1.047410149e-05
1.047423273e-05
1.047436773e-05
1.047450626e-05
1.047464807e-05
1.047479294e-05
1.04749406e-05
1.047509082e-05
1.047524333e-05
1.047539787e-05
1.047555418e-05
1.0475712e-05
1.047587106e-05
1.047603109e-05
1.047619182e-05
1.047635299e-05
1.047651433e-05
1.047667556e-05
1.047683642e-05
1.047699664e-05
1.047715597e-05
1.047731414e-05
1.04774709e-05
1.047762598e-05
1.047777916e-05
1.047793018e-05
1.047807881e-05
1.047822481e-05
1.047473627e-05
1.047473921e-05
1.047474568e-05
1.04747555e-05
1.047476863e-05
1.047478502e-05
1.047480465e-05
1.047482747e-05
1.047485346e-05
1.047488256e-05
1.047491473e-05
1.04749499e-05
1.047498801e-05
1.0475029e-05
1.04750728e-05
1.047511933e-05
1.047516852e-05
1.047522027e-05
1.04752745e-05
1.047533112e-05
1.047539002e-05
1.047545111e-05
1.047551428e-05
1.047557942e-05
1.047564643e-05
1.047571518e-05
1.047578557e-05
1.047585746e-05
1.047593075e-05
1.04760053e-05
1.047608098e-05
1.047615768e-05
1.047623526e-05
1.047631359e-05
1.047639253e-05
1.047647197e-05
1.047655176e-05
1.047663177e-05
1.047671187e-05
1.047679193e-05
1.047687182e-05
1.04769514e-05
1.047703055e-05
1.047710915e-05
1.047718705e-05
1.047726415e-05
1.047734031e-05
1.047741542e-05
1.047748936e-05
1.047756202e-05
1.047547217e-05
1.047547364e-05
1.047547686e-05
1.047548175e-05
1.047548828e-05
1.047549644e-05
1.047550621e-05
1.047551758e-05
1.047553051e-05
1.0475545e-05
1.047556101e-05
1.047557851e-05
1.047559748e-05
1.047561789e-05
1.047563969e-05
1.047566285e-05
1.047568733e-05
1.047571309e-05
1.047574008e-05
1.047576825e-05
1.047579757e-05
1.047582797e-05
1.047585941e-05
1.047589183e-05
1.047592517e-05
1.047595939e-05
1.047599441e-05
1.047603019e-05
1.047606666e-05
1.047610376e-05
1.047614143e-05
1.04761796e-05
1.047621821e-05
1.04762572e-05
1.047629649e-05
1.047633603e-05
1.047637574e-05
1.047641558e-05
1.047645545e-05
1.047649531e-05
1.047653509e-05
1.047657472e-05
1.047661414e-05
1.047665328e-05
1.047669209e-05
1.047673049e-05
1.047676844e-05
1.047680587e-05
1.047684272e-05
1.047687893e-05
1.047548341e-05
1.047548414e-05
1.047548574e-05
1.047548818e-05
1.047549143e-05
1.04754955e-05
1.047550037e-05
1.047550603e-05
1.047551248e-05
1.04755197e-05
1.047552768e-05
1.04755364e-05
1.047554586e-05
1.047555603e-05
1.047556689e-05
1.047557843e-05
1.047559063e-05
1.047560347e-05
1.047561692e-05
1.047563096e-05
1.047564557e-05
1.047566072e-05
1.047567639e-05
1.047569254e-05
1.047570916e-05
1.047572621e-05
1.047574367e-05
1.04757615e-05
1.047577968e-05
1.047579817e-05
1.047581694e-05
1.047583596e-05
1.047585521e-05
1.047587464e-05
1.047589422e-05
1.047591393e-05
1.047593373e-05
1.047595358e-05
1.047597346e-05
1.047599333e-05
1.047601316e-05
1.047603292e-05
1.047605257e-05
1.047607209e-05
1.047609144e-05
1.047611059e-05
1.047612951e-05
1.047614818e-05
1.047616656e-05
1.047618462e-05
1.047513382e-05
1.047513418e-05
1.047513498e-05
1.04751362e-05
1.047513782e-05
1.047513985e-05
1.047514228e-05
1.04751451e-05
1.047514832e-05
1.047515192e-05
1.04751559e-05
1.047516025e-05
1.047516496e-05
1.047517003e-05
1.047517545e-05
1.047518121e-05
1.047518729e-05
1.047519369e-05
1.04752004e-05
1.04752074e-05
1.047521469e-05
1.047522225e-05
1.047523006e-05
1.047523812e-05
1.04752464e-05
1.047525491e-05
1.047526361e-05
1.047527251e-05
1.047528157e-05
1.047529079e-05
1.047530016e-05
1.047530964e-05
1.047531924e-05
1.047532893e-05
1.04753387e-05
1.047534853e-05
1.047535841e-05
1.047536831e-05
1.047537822e-05
1.047538814e-05
1.047539803e-05
1.047540788e-05
1.047541769e-05
1.047542743e-05
1.047543708e-05
1.047544663e-05
1.047545608e-05
1.047546539e-05
1.047547456e-05
1.047548357e-05
1.047460349e-05
1.047460367e-05
1.047460407e-05
1.047460468e-05
1.047460549e-05
1.04746065e-05
1.047460771e-05
1.047460912e-05
1.047461072e-05
1.047461252e-05
1.04746145e-05
1.047461667e-05
1.047461903e-05
1.047462156e-05
1.047462426e-05
1.047462713e-05
1.047463017e-05
1.047463336e-05
1.047463671e-05
1.04746402e-05
1.047464384e-05
1.047464761e-05
1.04746515e-05
1.047465552e-05
1.047465966e-05
1.04746639e-05
1.047466825e-05
1.047467268e-05
1.047467721e-05
1.047468181e-05
1.047468648e-05
1.047469121e-05
1.0474696e-05
1.047470084e-05
1.047470571e-05
1.047471061e-05
1.047471554e-05
1.047472048e-05
1.047472543e-05
1.047473038e-05
1.047473531e-05
1.047474023e-05
1.047474512e-05
1.047474998e-05
1.04747548e-05
1.047475957e-05
1.047476428e-05
1.047476893e-05
1.04747735e-05
1.0474778e-05
1.047398192e-05
1.047398201e-05
1.047398221e-05
1.047398251e-05
1.047398291e-05
1.047398342e-05
1.047398402e-05
1.047398473e-05
1.047398553e-05
1.047398642e-05
1.047398741e-05
1.04739885e-05
1.047398967e-05
1.047399093e-05
1.047399228e-05
1.047399371e-05
1.047399523e-05
1.047399682e-05
1.047399849e-05
1.047400024e-05
1.047400205e-05
1.047400393e-05
1.047400588e-05
1.047400788e-05
1.047400995e-05
1.047401206e-05
1.047401423e-05
1.047401644e-05
1.04740187e-05
1.0474021e-05
1.047402333e-05
1.047402569e-05
1.047402808e-05
1.047403049e-05
1.047403293e-05
1.047403537e-05
1.047403783e-05
1.04740403e-05
1.047404277e-05
1.047404524e-05
1.04740477e-05
1.047405015e-05
1.04740526e-05
1.047405502e-05
1.047405742e-05
1.04740598e-05
1.047406216e-05
1.047406448e-05
1.047406676e-05
1.047406901e-05
1.047331366e-05
1.047331371e-05
1.047331381e-05
1.047331396e-05
1.047331416e-05
1.047331441e-05
1.047331471e-05
1.047331507e-05
1.047331546e-05
1.047331591e-05
1.047331641e-05
1.047331695e-05
1.047331753e-05
1.047331816e-05
1.047331884e-05
1.047331955e-05
1.047332031e-05
1.04733211e-05
1.047332194e-05
1.047332281e-05
1.047332371e-05
1.047332465e-05
1.047332562e-05
1.047332662e-05
1.047332765e-05
1.047332871e-05
1.047332979e-05
1.04733309e-05
1.047333202e-05
1.047333317e-05
1.047333433e-05
1.047333551e-05
1.04733367e-05
1.047333791e-05
1.047333912e-05
1.047334034e-05
1.047334157e-05
1.04733428e-05
1.047334403e-05
1.047334527e-05
1.047334649e-05
1.047334772e-05
1.047334894e-05
1.047335015e-05
1.047335135e-05
1.047335254e-05
1.047335371e-05
1.047335487e-05
1.047335601e-05
1.047335713e-05
1.047262094e-05
1.047262096e-05
1.047262101e-05
1.047262109e-05
1.047262119e-05
1.047262132e-05
1.047262147e-05
1.047262164e-05
1.047262184e-05
1.047262206e-05
1.047262231e-05
1.047262258e-05
1.047262287e-05
1.047262319e-05
1.047262352e-05
1.047262388e-05
1.047262426e-05
1.047262466e-05
1.047262507e-05
1.047262551e-05
1.047262596e-05
1.047262643e-05
1.047262691e-05
1.047262741e-05
1.047262792e-05
1.047262845e-05
1.047262899e-05
1.047262954e-05
1.047263011e-05
1.047263068e-05
1.047263126e-05
1.047263185e-05
1.047263244e-05
1.047263304e-05
1.047263365e-05
1.047263426e-05
1.047263487e-05
1.047263548e-05
1.04726361e-05
1.047263671e-05
1.047263733e-05
1.047263794e-05
1.047263855e-05
1.047263915e-05
1.047263975e-05
1.047264034e-05
1.047264093e-05
1.047264151e-05
1.047264208e-05
1.047264264e-05
1.047191483e-05
1.047191484e-05
1.047191486e-05
1.04719149e-05
1.047191495e-05
1.047191501e-05
1.047191509e-05
1.047191518e-05
1.047191528e-05
1.047191539e-05
1.047191551e-05
1.047191564e-05
1.047191579e-05
1.047191595e-05
1.047191611e-05
1.047191629e-05
1.047191648e-05
1.047191668e-05
1.047191689e-05
1.04719171e-05
1.047191733e-05
1.047191756e-05
1.047191781e-05
1.047191805e-05
1.047191831e-05
1.047191857e-05
1.047191884e-05
1.047191912e-05
1.04719194e-05
1.047191969e-05
1.047191997e-05
1.047192027e-05
1.047192057e-05
1.047192087e-05
1.047192117e-05
1.047192147e-05
1.047192178e-05
1.047192208e-05
1.047192239e-05
1.04719227e-05
1.047192301e-05
1.047192331e-05
1.047192361e-05
1.047192392e-05
1.047192421e-05
1.047192451e-05
1.04719248e-05
1.047192509e-05
1.047192538e-05
1.047192565e-05
1.047120084e-05
1.047120084e-05
1.047120085e-05
1.047120087e-05
1.04712009e-05
1.047120093e-05
1.047120097e-05
1.047120101e-05
1.047120106e-05
1.047120112e-05
1.047120118e-05
1.047120124e-05
1.047120132e-05
1.04712014e-05
1.047120148e-05
1.047120157e-05
1.047120166e-05
1.047120176e-05
1.047120186e-05
1.047120197e-05
1.047120209e-05
1.04712022e-05
1.047120232e-05
1.047120245e-05
1.047120258e-05
1.047120271e-05
1.047120284e-05
1.047120298e-05
1.047120312e-05
1.047120326e-05
1.047120341e-05
1.047120355e-05
1.04712037e-05
1.047120385e-05
1.0471204e-05
1.047120415e-05
1.047120431e-05
1.047120446e-05
1.047120461e-05
1.047120477e-05
1.047120492e-05
1.047120507e-05
1.047120522e-05
1.047120537e-05
1.047120552e-05
1.047120567e-05
1.047120582e-05
1.047120596e-05
1.04712061e-05
1.047120624e-05
1.047048172e-05
1.047048172e-05
1.047048173e-05
1.047048174e-05
1.047048175e-05
1.047048177e-05
1.047048179e-05
1.047048181e-05
1.047048183e-05
1.047048186e-05
1.047048189e-05
1.047048192e-05
1.047048196e-05
1.0470482e-05
1.047048204e-05
1.047048209e-05
1.047048213e-05
1.047048218e-05
1.047048223e-05
1.047048229e-05
1.047048234e-05
1.04704824e-05
1.047048246e-05
1.047048252e-05
1.047048259e-05
1.047048265e-05
1.047048272e-05
1.047048279e-05
1.047048286e-05
1.047048293e-05
1.0470483e-05
1.047048308e-05
1.047048315e-05
1.047048322e-05
1.04704833e-05
1.047048338e-05
1.047048345e-05
1.047048353e-05
1.04704836e-05
1.047048368e-05
1.047048376e-05
1.047048383e-05
1.047048391e-05
1.047048398e-05
1.047048406e-05
1.047048413e-05
1.047048421e-05
1.047048428e-05
1.047048435e-05
1.047048442e-05
1.046975884e-05
1.046975885e-05
1.046975885e-05
1.046975885e-05
1.046975886e-05
1.046975887e-05
1.046975888e-05
1.046975889e-05
1.04697589e-05
1.046975891e-05
1.046975893e-05
1.046975895e-05
1.046975896e-05
1.046975898e-05
1.0469759e-05
1.046975903e-05
1.046975905e-05
1.046975907e-05
1.04697591e-05
1.046975913e-05
1.046975916e-05
1.046975918e-05
1.046975921e-05
1.046975925e-05
1.046975928e-05
1.046975931e-05
1.046975934e-05
1.046975938e-05
1.046975941e-05
1.046975945e-05
1.046975948e-05
1.046975952e-05
1.046975956e-05
1.046975959e-05
1.046975963e-05
1.046975967e-05
1.046975971e-05
1.046975975e-05
1.046975978e-05
1.046975982e-05
1.046975986e-05
1.04697599e-05
1.046975994e-05
1.046975997e-05
1.046976001e-05
1.046976005e-05
1.046976008e-05
1.046976012e-05
1.046976016e-05
1.046976019e-05
1.046903288e-05
1.046903288e-05
1.046903289e-05
1.046903289e-05
1.046903289e-05
1.04690329e-05
1.04690329e-05
1.046903291e-05
1.046903291e-05
1.046903292e-05
1.046903293e-05
1.046903293e-05
1.046903294e-05
1.046903295e-05
1.046903296e-05
1.046903298e-05
1.046903299e-05
1.0469033e-05
1.046903301e-05
1.046903303e-05
1.046903304e-05
1.046903305e-05
1.046903307e-05
1.046903308e-05
1.04690331e-05
1.046903312e-05
1.046903313e-05
1.046903315e-05
1.046903317e-05
1.046903319e-05
1.04690332e-05
1.046903322e-05
1.046903324e-05
1.046903326e-05
1.046903328e-05
1.04690333e-05
1.046903332e-05
1.046903333e-05
1.046903335e-05
1.046903337e-05
1.046903339e-05
1.046903341e-05
1.046903343e-05
1.046903345e-05
1.046903347e-05
1.046903349e-05
1.04690335e-05
1.046903352e-05
1.046903354e-05
1.046903356e-05
1.046830417e-05
1.046830417e-05
1.046830417e-05
1.046830417e-05
1.046830418e-05
1.046830418e-05
1.046830418e-05
1.046830418e-05
1.046830419e-05
1.046830419e-05
1.046830419e-05
1.04683042e-05
1.04683042e-05
1.046830421e-05
1.046830421e-05
1.046830422e-05
1.046830422e-05
1.046830423e-05
1.046830424e-05
1.046830424e-05
1.046830425e-05
1.046830426e-05
1.046830426e-05
1.046830427e-05
1.046830428e-05
1.046830429e-05
1.04683043e-05
1.04683043e-05
1.046830431e-05
1.046830432e-05
1.046830433e-05
1.046830434e-05
1.046830435e-05
1.046830436e-05
1.046830437e-05
1.046830438e-05
1.046830439e-05
1.04683044e-05
1.046830441e-05
1.046830442e-05
1.046830442e-05
1.046830443e-05
1.046830444e-05
1.046830445e-05
1.046830446e-05
1.046830447e-05
1.046830448e-05
1.046830449e-05
1.04683045e-05
1.046830451e-05
1.046757287e-05
1.046757287e-05
1.046757287e-05
1.046757287e-05
1.046757287e-05
1.046757287e-05
1.046757287e-05
1.046757287e-05
1.046757287e-05
1.046757287e-05
1.046757288e-05
1.046757288e-05
1.046757288e-05
1.046757288e-05
1.046757289e-05
1.046757289e-05
1.046757289e-05
1.046757289e-05
1.04675729e-05
1.04675729e-05
1.04675729e-05
1.046757291e-05
1.046757291e-05
1.046757292e-05
1.046757292e-05
1.046757292e-05
1.046757293e-05
1.046757293e-05
1.046757294e-05
1.046757294e-05
1.046757295e-05
1.046757295e-05
1.046757295e-05
1.046757296e-05
1.046757296e-05
1.046757297e-05
1.046757297e-05
1.046757298e-05
1.046757298e-05
1.046757299e-05
1.046757299e-05
1.0467573e-05
1.0467573e-05
1.046757301e-05
1.046757301e-05
1.046757302e-05
1.046757302e-05
1.046757302e-05
1.046757303e-05
1.046757303e-05
1.046683904e-05
1.046683904e-05
1.046683904e-05
1.046683904e-05
1.046683904e-05
1.046683904e-05
1.046683904e-05
1.046683904e-05
1.046683904e-05
1.046683904e-05
1.046683904e-05
1.046683905e-05
1.046683905e-05
1.046683905e-05
1.046683905e-05
1.046683905e-05
1.046683905e-05
1.046683905e-05
1.046683906e-05
1.046683906e-05
1.046683906e-05
1.046683906e-05
1.046683906e-05
1.046683906e-05
1.046683907e-05
1.046683907e-05
1.046683907e-05
1.046683907e-05
1.046683908e-05
1.046683908e-05
1.046683908e-05
1.046683908e-05
1.046683908e-05
1.046683909e-05
1.046683909e-05
1.046683909e-05
1.046683909e-05
1.04668391e-05
1.04668391e-05
1.04668391e-05
1.04668391e-05
1.046683911e-05
1.046683911e-05
1.046683911e-05
1.046683911e-05
1.046683911e-05
1.046683912e-05
1.046683912e-05
1.046683912e-05
1.046683912e-05
1.046610272e-05
1.046610272e-05
1.046610272e-05
1.046610272e-05
1.046610272e-05
1.046610272e-05
1.046610273e-05
1.046610273e-05
1.046610273e-05
1.046610273e-05
1.046610273e-05
1.046610273e-05
1.046610273e-05
1.046610273e-05
1.046610273e-05
1.046610273e-05
1.046610273e-05
1.046610273e-05
1.046610273e-05
1.046610273e-05
1.046610273e-05
1.046610273e-05
1.046610274e-05
1.046610274e-05
1.046610274e-05
1.046610274e-05
1.046610274e-05
1.046610274e-05
1.046610274e-05
1.046610274e-05
1.046610274e-05
1.046610275e-05
1.046610275e-05
1.046610275e-05
1.046610275e-05
1.046610275e-05
1.046610275e-05
1.046610275e-05
1.046610275e-05
1.046610275e-05
1.046610276e-05
1.046610276e-05
1.046610276e-05
1.046610276e-05
1.046610276e-05
1.046610276e-05
1.046610276e-05
1.046610276e-05
1.046610277e-05
1.046610277e-05
1.046536393e-05
1.046536393e-05
1.046536393e-05
1.046536393e-05
1.046536393e-05
1.046536393e-05
1.046536393e-05
1.046536393e-05
1.046536393e-05
1.046536393e-05
1.046536393e-05
1.046536393e-05
1.046536393e-05
1.046536393e-05
1.046536393e-05
1.046536393e-05
1.046536393e-05
1.046536393e-05
1.046536393e-05
1.046536393e-05
1.046536393e-05
1.046536393e-05
1.046536393e-05
1.046536393e-05
1.046536394e-05
1.046536394e-05
1.046536394e-05
1.046536394e-05
1.046536394e-05
1.046536394e-05
1.046536394e-05
1.046536394e-05
1.046536394e-05
1.046536394e-05
1.046536394e-05
1.046536394e-05
1.046536394e-05
1.046536394e-05
1.046536394e-05
1.046536394e-05
1.046536394e-05
1.046536394e-05
1.046536395e-05
1.046536395e-05
1.046536395e-05
1.046536395e-05
1.046536395e-05
1.046536395e-05
1.046536395e-05
1.046536395e-05
1.046462265e-05
1.046462265e-05
1.046462265e-05
1.046462265e-05
1.046462265e-05
1.046462265e-05
1.046462265e-05
1.046462265e-05
1.046462265e-05
1.046462265e-05
1.046462265e-05
1.046462265e-05
1.046462265e-05
1.046462265e-05
1.046462265e-05
1.046462265e-05
1.046462265e-05
1.046462265e-05
1.046462265e-05
1.046462265e-05
1.046462265e-05
1.046462265e-05
1.046462265e-05
1.046462265e-05
1.046462265e-05
1.046462265e-05
1.046462265e-05
1.046462265e-05
1.046462265e-05
1.046462266e-05
1.046462266e-05
1.046462266e-05
1.046462266e-05
1.046462266e-05
1.046462266e-05
1.046462266e-05
1.046462266e-05
1.046462266e-05
1.046462266e-05
1.046462266e-05
1.046462266e-05
1.046462266e-05
1.046462266e-05
1.046462266e-05
1.046462266e-05
1.046462266e-05
1.046462266e-05
1.046462266e-05
1.046462266e-05
1.046462266e-05
1.046387888e-05
1.046387888e-05
1.046387888e-05
1.046387888e-05
1.046387888e-05
1.046387888e-05
1.046387888e-05
1.046387888e-05
1.046387888e-05
1.046387888e-05
1.046387888e-05
1.046387888e-05
1.046387888e-05
1.046387888e-05
1.046387888e-05
1.046387888e-05
1.046387888e-05
1.046387888e-05
1.046387888e-05
1.046387888e-05
1.046387888e-05
1.046387888e-05
1.046387888e-05
1.046387888e-05
1.046387888e-05
1.046387888e-05
1.046387889e-05
1.046387889e-05
1.046387889e-05
1.046387889e-05
1.046387889e-05
1.046387889e-05
1.046387889e-05
1.046387889e-05
1.046387889e-05
1.046387889e-05
1.046387889e-05
1.046387889e-05
1.046387889e-05
1.046387889e-05
1.046387889e-05
1.046387889e-05
1.046387889e-05
1.046387889e-05
1.046387889e-05
1.046387889e-05
1.046387889e-05
1.046387889e-05
1.046387889e-05
1.046387889e-05
1.046313262e-05
1.046313262e-05
1.046313262e-05
1.046313262e-05
1.046313262e-05
1.046313262e-05
1.046313262e-05
1.046313262e-05
1.046313262e-05
1.046313262e-05
1.046313262e-05
1.046313262e-05
1.046313262e-05
1.046313262e-05
1.046313262e-05
1.046313262e-05
1.046313262e-05
1.046313262e-05
1.046313262e-05
1.046313262e-05
1.046313262e-05
1.046313262e-05
1.046313262e-05
1.046313262e-05
1.046313262e-05
1.046313262e-05
1.046313262e-05
1.046313262e-05
1.046313262e-05
1.046313262e-05
1.046313262e-05
1.046313262e-05
1.046313262e-05
1.046313262e-05
1.046313262e-05
1.046313262e-05
1.046313262e-05
1.046313262e-05
1.046313262e-05
1.046313262e-05
1.046313262e-05
1.046313262e-05
1.046313262e-05
1.046313262e-05
1.046313262e-05
1.046313262e-05
1.046313262e-05
1.046313262e-05
1.046313262e-05
1.046313262e-05
1.046238384e-05
1.046238384e-05
1.046238384e-05
1.046238384e-05
1.046238384e-05
1.046238384e-05
1.046238384e-05
1.046238384e-05
1.046238384e-05
1.046238384e-05
1.046238384e-05
1.046238384e-05
1.046238384e-05
1.046238384e-05
1.046238384e-05
1.046238384e-05
1.046238384e-05
1.046238384e-05
1.046238384e-05
1.046238384e-05
1.046238384e-05
1.046238384e-05
1.046238384e-05
1.046238384e-05
1.046238384e-05
1.046238384e-05
1.046238384e-05
1.046238384e-05
1.046238384e-05
1.046238384e-05
1.046238384e-05
1.046238384e-05
1.046238384e-05
1.046238384e-05
1.046238384e-05
1.046238384e-05
1.046238384e-05
1.046238384e-05
1.046238384e-05
1.046238384e-05
1.046238384e-05
1.046238384e-05
1.046238384e-05
1.046238384e-05
1.046238384e-05
1.046238384e-05
1.046238384e-05
1.046238384e-05
1.046238384e-05
1.046238384e-05
1.046163254e-05
1.046163254e-05
1.046163254e-05
1.046163254e-05
1.046163254e-05
1.046163254e-05
1.046163254e-05
1.046163254e-05
1.046163254e-05
1.046163254e-05
1.046163254e-05
1.046163254e-05
1.046163254e-05
1.046163254e-05
1.046163254e-05
1.046163254e-05
1.046163254e-05
1.046163254e-05
1.046163254e-05
1.046163254e-05
1.046163254e-05
1.046163254e-05
1.046163254e-05
1.046163254e-05
1.046163254e-05
1.046163254e-05
1.046163254e-05
1.046163254e-05
1.046163254e-05
1.046163254e-05
1.046163254e-05
1.046163254e-05
1.046163254e-05
1.046163254e-05
1.046163254e-05
1.046163254e-05
1.046163254e-05
1.046163254e-05
1.046163254e-05
1.046163254e-05
1.046163254e-05
1.046163254e-05
1.046163254e-05
1.046163254e-05
1.046163254e-05
1.046163254e-05
1.046163254e-05
1.046163254e-05
1.046163254e-05
1.046163254e-05
1.046087871e-05
1.046087871e-05
1.046087871e-05
1.046087871e-05
1.046087871e-05
1.046087871e-05
1.046087871e-05
1.046087871e-05
1.046087871e-05
1.046087871e-05
1.046087871e-05
1.046087871e-05
1.046087871e-05
1.046087871e-05
1.046087871e-05
1.046087871e-05
1.046087871e-05
1.046087871e-05
1.046087871e-05
1.046087871e-05
1.046087871e-05
1.046087871e-05
1.046087871e-05
1.046087871e-05
1.046087871e-05
1.046087871e-05
1.046087871e-05
1.046087871e-05
1.046087871e-05
1.046087871e-05
1.046087871e-05
1.046087871e-05
1.046087871e-05
1.046087871e-05
1.046087871e-05
1.046087871e-05
1.046087871e-05
1.046087871e-05
1.046087871e-05
1.046087871e-05
1.046087871e-05
1.046087871e-05
1.046087871e-05
1.046087871e-05
1.046087871e-05
1.046087871e-05
1.046087871e-05
1.046087871e-05
1.046087871e-05
1.046087871e-05
1.046012233e-05
1.046012233e-05
1.046012233e-05
1.046012233e-05
1.046012233e-05
1.046012233e-05
1.046012233e-05
1.046012233e-05
1.046012233e-05
1.046012233e-05
1.046012233e-05
1.046012233e-05
1.046012233e-05
1.046012233e-05
1.046012233e-05
1.046012233e-05
1.046012233e-05
1.046012233e-05
1.046012233e-05
1.046012233e-05
1.046012233e-05
1.046012233e-05
1.046012233e-05
1.046012233e-05
1.046012233e-05
1.046012233e-05
1.046012233e-05
1.046012233e-05
1.046012233e-05
1.046012233e-05
1.046012233e-05
1.046012233e-05
1.046012233e-05
1.046012233e-05
1.046012233e-05
1.046012233e-05
1.046012233e-05
1.046012233e-05
1.046012233e-05
1.046012233e-05
1.046012233e-05
1.046012233e-05
1.046012233e-05
1.046012233e-05
1.046012233e-05
1.046012233e-05
1.046012233e-05
1.046012233e-05
1.046012233e-05
1.046012233e-05
1.045936338e-05
1.045936338e-05
1.045936338e-05
1.045936338e-05
1.045936338e-05
1.045936338e-05
1.045936338e-05
1.045936338e-05
1.045936338e-05
1.045936338e-05
1.045936338e-05
1.045936338e-05
1.045936338e-05
1.045936338e-05
1.045936338e-05
1.045936338e-05
1.045936338e-05
1.045936338e-05
1.045936338e-05
1.045936338e-05
1.045936338e-05
1.045936338e-05
1.045936338e-05
1.045936338e-05
1.045936338e-05
1.045936338e-05
1.045936338e-05
1.045936338e-05
1.045936338e-05
1.045936338e-05
1.045936338e-05
1.045936338e-05
1.045936338e-05
1.045936338e-05
1.045936338e-05
1.045936338e-05
1.045936338e-05
1.045936338e-05
1.045936338e-05
1.045936338e-05
1.045936338e-05
1.045936338e-05
1.045936338e-05
1.045936338e-05
1.045936338e-05
1.045936338e-05
1.045936338e-05
1.045936338e-05
1.045936338e-05
1.045936338e-05
1.045860187e-05
1.045860187e-05
1.045860187e-05
1.045860187e-05
1.045860187e-05
1.045860187e-05
1.045860187e-05
1.045860187e-05
1.045860187e-05
1.045860187e-05
1.045860187e-05
1.045860187e-05
1.045860187e-05
1.045860187e-05
1.045860187e-05
1.045860187e-05
1.045860187e-05
1.045860187e-05
1.045860187e-05
1.045860187e-05
1.045860187e-05
1.045860187e-05
1.045860187e-05
1.045860187e-05
1.045860187e-05
1.045860187e-05
1.045860187e-05
1.045860187e-05
1.045860187e-05
1.045860187e-05
1.045860187e-05
1.045860187e-05
1.045860187e-05
1.045860187e-05
1.045860187e-05
1.045860187e-05
1.045860187e-05
1.045860187e-05
1.045860187e-05
1.045860187e-05
1.045860187e-05
1.045860187e-05
1.045860187e-05
1.045860187e-05
1.045860187e-05
1.045860187e-05
1.045860187e-05
1.045860187e-05
1.045860187e-05
1.045860187e-05
1.045783777e-05
1.045783777e-05
1.045783777e-05
1.045783777e-05
1.045783777e-05
1.045783777e-05
1.045783777e-05
1.045783777e-05
1.045783777e-05
1.045783777e-05
1.045783777e-05
1.045783777e-05
1.045783777e-05
1.045783777e-05
1.045783777e-05
1.045783777e-05
1.045783777e-05
1.045783777e-05
1.045783777e-05
1.045783777e-05
1.045783777e-05
1.045783777e-05
1.045783777e-05
1.045783777e-05
1.045783777e-05
1.045783777e-05
1.045783777e-05
1.045783777e-05
1.045783777e-05
1.045783777e-05
1.045783777e-05
1.045783777e-05
1.045783777e-05
1.045783777e-05
1.045783777e-05
1.045783777e-05
1.045783777e-05
1.045783777e-05
1.045783777e-05
1.045783777e-05
1.045783777e-05
1.045783777e-05
1.045783777e-05
1.045783777e-05
1.045783777e-05
1.045783777e-05
1.045783777e-05
1.045783777e-05
1.045783777e-05
1.045783777e-05
1.045707107e-05
1.045707107e-05
1.045707107e-05
1.045707107e-05
1.045707107e-05
1.045707107e-05
1.045707107e-05
1.045707107e-05
1.045707107e-05
1.045707107e-05
1.045707107e-05
1.045707107e-05
1.045707107e-05
1.045707107e-05
1.045707107e-05
1.045707107e-05
1.045707107e-05
1.045707107e-05
1.045707107e-05
1.045707107e-05
1.045707107e-05
1.045707107e-05
1.045707107e-05
1.045707107e-05
1.045707107e-05
1.045707107e-05
1.045707107e-05
1.045707107e-05
1.045707107e-05
1.045707107e-05
1.045707107e-05
1.045707107e-05
1.045707107e-05
1.045707107e-05
1.045707107e-05
1.045707107e-05
1.045707107e-05
1.045707107e-05
1.045707107e-05
1.045707107e-05
1.045707107e-05
1.045707107e-05
1.045707107e-05
1.045707107e-05
1.045707107e-05
1.045707107e-05
1.045707107e-05
1.045707107e-05
1.045707107e-05
1.045707107e-05
1.045630175e-05
1.045630175e-05
1.045630175e-05
1.045630175e-05
1.045630175e-05
1.045630175e-05
1.045630175e-05
1.045630175e-05
1.045630175e-05
1.045630175e-05
1.045630175e-05
1.045630175e-05
1.045630175e-05
1.045630175e-05
1.045630175e-05
1.045630175e-05
1.045630175e-05
1.045630175e-05
1.045630175e-05
1.045630175e-05
1.045630175e-05
1.045630175e-05
1.045630175e-05
1.045630175e-05
1.045630175e-05
1.045630175e-05
1.045630175e-05
1.045630175e-05
1.045630175e-05