/*--------------------------------*- C++ -*----------------------------------*\
| =========                 |                                                 |
| \\      /  F ield         | OpenFOAM: The Open Source CFD Toolbox           |
|  \\    /   O peration     | Version:  5.x                                   |
|   \\  /    A nd           | Web:      www.OpenFOAM.org                      |
|    \\/     M anipulation  |                                                 |
\*---------------------------------------------------------------------------*/
FoamFile
{
    version     2.0;
    format      ascii;
    class       surfaceScalarField;
    location    "0.01";
    object      phiAir;
}
// * * * * * * * * * * * * * * * * * * * * * * * * * * * * * * * * * * * * * //

dimensions      [1 0 -1 0 0 0 0];

internalField   nonuniform List<scalar> 
15691
(
-5.521960906e-11
1.937630109e-10
-2.232187362e-10
5.836291803e-10
-5.045258127e-10
9.740240937e-10
-8.987720563e-10
1.364049375e-09
-1.405598361e-09
1.753717416e-09
-2.024620884e-09
2.142999379e-09
-2.755384321e-09
2.531827672e-09
-3.597340375e-09
2.920106389e-09
-4.549868352e-09
3.307765311e-09
-5.612232467e-09
3.694688636e-09
-6.783562625e-09
4.080740816e-09
-8.062829126e-09
4.465762787e-09
-9.448809133e-09
4.84956656e-09
-1.094006865e-08
5.231928705e-09
-1.253489266e-08
5.61258213e-09
-1.423125415e-08
5.991205991e-09
-1.602673664e-08
6.367413773e-09
-1.791845874e-08
6.740738826e-09
-1.990296962e-08
7.11061772e-09
-2.197614857e-08
7.476370523e-09
-2.413305023e-08
7.837178144e-09
-2.63677422e-08
8.192056616e-09
-2.867311776e-08
8.539828935e-09
-3.104067325e-08
8.879093613e-09
-3.346023715e-08
9.208189635e-09
-3.591968486e-08
9.525159929e-09
-3.840459861e-08
9.827713425e-09
-4.089790167e-08
1.011318682e-08
-4.337940465e-08
1.037847694e-08
-4.582537433e-08
1.062002912e-08
-4.820824826e-08
1.083401785e-08
-5.049590885e-08
1.101589542e-08
-5.265109702e-08
1.116050575e-08
-5.46310468e-08
1.126235775e-08
-5.6385913e-08
1.131435799e-08
-5.785903224e-08
1.130969963e-08
-5.899200173e-08
1.124663531e-08
-5.971503618e-08
1.111378745e-08
-5.994847435e-08
1.090127997e-08
-5.96078068e-08
1.06042568e-08
-5.860099633e-08
1.021520241e-08
-5.682810326e-08
9.726208218e-09
-5.418088098e-08
9.128963638e-09
-5.054231083e-08
8.414703041e-09
-4.578604427e-08
7.57409541e-09
-3.977565565e-08
6.597057034e-09
-3.236360112e-08
5.47247981e-09
-2.338989231e-08
4.187913999e-09
-1.268008094e-08
2.728893055e-09
1.035714471e-09
-3.82724001e-12
1.975902465e-10
-1.172486067e-11
5.915268193e-10
-2.294242021e-11
9.852415512e-10
-3.801092043e-11
1.37911803e-09
-5.732058383e-11
1.773027036e-09
-8.118985342e-11
2.166868781e-09
-1.099343006e-10
2.56057215e-09
-1.438962837e-10
2.954068297e-09
-1.833553087e-10
3.347224443e-09
-2.286004439e-10
3.739933893e-09
-2.799276071e-10
4.132068048e-09
-3.376351369e-10
4.523470017e-09
-4.020157296e-10
4.913947016e-09
-4.733481439e-10
5.303261479e-09
-5.518865406e-10
5.691120608e-09
-6.378452601e-10
6.077164322e-09
-7.313826861e-10
6.460951259e-09
-8.325860765e-10
6.841942584e-09
-9.414515051e-10
7.219483506e-09
-1.057863828e-09
7.592782466e-09
-1.181639148e-09
7.9609537e-09
-1.312298404e-09
8.322716326e-09
-1.449213834e-09
8.676744308e-09
-1.59168417e-09
9.021563805e-09
-1.738737062e-09
9.35524139e-09
-1.889178784e-09
9.675602792e-09
-2.041600237e-09
9.980134701e-09
-2.19437503e-09
1.026596138e-08
-2.345752509e-09
1.052985356e-08
-2.493871475e-09
1.076814836e-08
-2.636469524e-09
1.097661629e-08
-2.771134208e-09
1.115055923e-08
-2.895059236e-09
1.128443135e-08
-3.004652957e-09
1.137195084e-08
-3.096667022e-09
1.140637309e-08
-3.167408309e-09
1.138043929e-08
-3.207269949e-09
1.128649885e-08
-3.209808914e-09
1.111632514e-08
-3.171211411e-09
1.08626842e-08
-3.086324853e-09
1.051936909e-08
-2.950918646e-09
1.007979675e-08
-2.761995842e-09
9.537284964e-09
-2.518217398e-09
8.885186596e-09
-2.220529368e-09
8.11701441e-09
-1.872990462e-09
7.226556902e-09
-1.483911288e-09
6.20797677e-09
-1.067311189e-09
5.055881764e-09
-6.447111074e-10
3.765312618e-09
-2.4729885e-10
2.331481047e-09
7.884155409e-10
-6.673950025e-12
2.042641993e-10
-2.9702745e-11
6.145556197e-10
-7.019271456e-11
1.025731485e-09
-1.282087225e-10
1.437134007e-09
-2.03792287e-10
1.848610527e-09
-2.969501884e-10
2.260026774e-09
-4.076046595e-10
2.671226725e-09
-5.356048941e-10
3.082068241e-09
-6.807979594e-10
3.492417664e-09
-8.429522339e-10
3.902088328e-09
-1.021740911e-09
4.310856236e-09
-1.216720577e-09
4.718450597e-09
-1.427317506e-09
5.124543364e-09
-1.65278864e-09
5.528732686e-09
-1.892193067e-09
5.93052556e-09
-2.144425413e-09
6.329395875e-09
-2.408119229e-09
6.724646637e-09
-2.681590145e-09
7.115412006e-09
-2.962850299e-09
7.500744405e-09
-3.249568738e-09
7.879500588e-09
-3.538892047e-09
8.250277154e-09
-3.827815447e-09
8.611639939e-09
-4.112889522e-09
8.961817446e-09
-4.389924214e-09
9.298599709e-09
-4.654383847e-09
9.619701032e-09
-4.901241256e-09
9.92246048e-09
-5.124988621e-09
1.020388119e-08
-5.319684982e-09
1.046065811e-08
-5.478904865e-09
1.068907298e-08
-5.596251171e-09
1.088549546e-08
-5.665506694e-09
1.104587073e-08
-5.680751406e-09
1.116580477e-08
-5.636907264e-09
1.124058697e-08
-5.530229555e-09
1.126527396e-08
-5.358613442e-09
1.123475548e-08
-5.1220071e-09
1.114383335e-08
-4.822714986e-09
1.098720605e-08
-4.466121446e-09
1.07597324e-08
-4.059652731e-09
1.045621537e-08
-3.61098178e-09
1.007069761e-08
-3.12906851e-09
9.597884125e-09
-2.624730828e-09
9.032947059e-09
-2.111158738e-09
8.371614289e-09
-1.604402664e-09
7.610258893e-09
-1.123816601e-09
6.7459707e-09
-6.92435459e-10
5.776595695e-09
-3.372771738e-10
4.700723755e-09
-8.957632786e-11
3.51761106e-09
1.483420976e-11
2.227071465e-09
8.032494429e-10
-6.224280316e-12
2.104884769e-10
-2.368055727e-11
6.320118751e-10
-5.258016619e-11
1.054631108e-09
-9.35744513e-11
1.478128376e-09
-1.471388607e-10
1.902174762e-09
-2.136352663e-10
2.326523133e-09
-2.933716774e-10
2.750963395e-09
-3.865820529e-10
3.175278369e-09
-4.933969008e-10
3.599232636e-09
-6.138676066e-10
4.022559143e-09
-7.479627989e-10
4.444951344e-09
-8.955463305e-10
4.866033876e-09
-1.056348419e-09
5.285345665e-09
-1.229970015e-09
5.702354314e-09
-1.415874578e-09
6.11643001e-09
-1.613228984e-09
6.526750616e-09
-1.820996658e-09
6.932413938e-09
-2.037967329e-09
7.332383263e-09
-2.262605251e-09
7.725381879e-09
-2.493061265e-09
8.109956807e-09
-2.727218724e-09
8.484434277e-09
-2.96247798e-09
8.846899491e-09
-3.195836458e-09
9.19517638e-09
-3.424045858e-09
9.526808624e-09
-3.643392783e-09
9.839048199e-09
-3.849777158e-09
1.012884487e-08
-4.038716364e-09
1.039282002e-08
-4.205429527e-09
1.062737226e-08
-4.344992325e-09
1.082863518e-08
-4.452345278e-09
1.0992849e-08
-4.522467138e-09
1.111599183e-08
-4.550704977e-09
1.11940432e-08
-4.533335332e-09
1.122321715e-08
-4.467759346e-09
1.119969848e-08
-4.352718727e-09
1.11197138e-08
-4.18849037e-09
1.097960596e-08
-3.977188203e-09
1.077590376e-08
-3.72279259e-09
1.05053371e-08
-3.430185395e-09
1.016360787e-08
-3.105488314e-09
9.74600052e-09
-2.755762948e-09
9.248158199e-09
-2.388968141e-09
8.666153284e-09
-2.013873809e-09
7.996518827e-09
-1.639878377e-09
7.236263655e-09
-1.276775433e-09
6.382868207e-09
-9.344395245e-10
5.434259031e-09
-6.22478844e-10
4.388763205e-09
-3.499069861e-10
3.245038936e-09
-1.24786486e-10
2.001952073e-09
6.784626296e-10
-2.071516655e-12
2.125599818e-10
-1.050996955e-11
6.404503895e-10
-2.641227787e-11
1.070533361e-09
-5.012246158e-11
1.50183851e-09
-8.188639394e-11
1.933938936e-09
-1.218851683e-10
2.366521539e-09
-1.701418169e-10
2.799220241e-09
-2.266057217e-10
3.231742349e-09
-2.911218856e-10
3.663748671e-09
-3.634413008e-10
4.094878693e-09
-4.431872584e-10
4.524697275e-09
-5.298507366e-10
4.952697032e-09
-6.228271885e-10
5.378322329e-09
-7.212659155e-10
5.800793066e-09
-8.241509126e-10
6.219314907e-09
-9.303659108e-10
6.632965942e-09
-1.038624035e-09
7.040671718e-09
-1.14744118e-09
7.441200209e-09
-1.255208251e-09
7.83314948e-09
-1.360187934e-09
8.214936054e-09
-1.460538135e-09
8.584784178e-09
-1.554355785e-09
8.940717345e-09
-1.639732354e-09
9.280552742e-09
-1.714823453e-09
9.601899605e-09
-1.777933251e-09
9.902157918e-09
-1.827616507e-09
1.017852837e-08
-1.862853651e-09
1.042805663e-08
-1.882963864e-09
1.064748298e-08
-1.888003965e-09
1.08336748e-08
-1.878016366e-09
1.098286201e-08
-1.853304371e-09
1.109127903e-08
-1.814343824e-09
1.115508306e-08
-1.761519983e-09
1.117039386e-08
-1.695141075e-09
1.113331865e-08
-1.615408604e-09
1.103998115e-08
-1.52235455e-09
1.088655329e-08
-1.415738266e-09
1.066928686e-08
-1.294943094e-09
1.038454187e-08
-1.160145032e-09
1.002880952e-08
-1.012916217e-09
9.598772847e-09
-8.561407106e-10
9.09138083e-09
-6.938945709e-10
8.503909176e-09
-5.313843135e-10
7.834007172e-09
-3.748498278e-10
7.079729246e-09
-2.315323097e-10
6.239549575e-09
-1.096297204e-10
5.31235825e-09
-1.830123681e-11
4.297434944e-09
3.233469724e-11
3.194401261e-09
3.110725052e-11
2.003179816e-09
7.095699153e-10
-2.920008121e-12
2.15479986e-10
-1.119106514e-11
6.487214749e-10
-2.511776805e-11
1.084459992e-09
-4.516375448e-11
1.521884578e-09
-7.163309838e-11
1.960408203e-09
-1.046558587e-10
2.399544394e-09
-1.443566249e-10
2.838920895e-09
-1.907176965e-10
3.278103392e-09
-2.436275159e-10
3.716658705e-09
-3.028500515e-10
4.154101112e-09
-3.680412761e-10
4.589888448e-09
-4.387506825e-10
5.023406433e-09
-5.144098275e-10
5.453981487e-09
-5.943355858e-10
5.880719128e-09
-6.777374817e-10
6.302716536e-09
-7.636921448e-10
6.718920472e-09
-8.511616175e-10
7.128141394e-09
-9.390048156e-10
7.529043326e-09
-1.025989953e-09
7.920135178e-09
-1.110818504e-09
8.299763828e-09
-1.192142741e-09
8.666109229e-09
-1.268608749e-09
9.017182123e-09
-1.33888003e-09
9.350824922e-09
-1.401696407e-09
9.664715992e-09
-1.455916579e-09
9.956377851e-09
-1.500576561e-09
1.022318862e-08
-1.534918092e-09
1.046239812e-08
-1.558583808e-09
1.067114805e-08
-1.571132398e-09
1.084622357e-08
-1.572317161e-09
1.09840469e-08
-1.561986244e-09
1.10809472e-08
-1.540088328e-09
1.113318667e-08
-1.506685647e-09
1.113698998e-08
-1.461943625e-09
1.108857697e-08
-1.406159479e-09
1.098419704e-08
-1.339771503e-09
1.082016523e-08
-1.263383639e-09
1.059289935e-08
-1.177799182e-09
1.029895749e-08
-1.084065905e-09
9.935075327e-09
-9.834954609e-10
9.49820297e-09
-8.776534159e-10
8.985539207e-09
-7.683055979e-10
8.394560274e-09
-6.573390984e-10
7.723041378e-09
-5.466793731e-10
6.96906907e-09
-4.381727546e-10
6.131044287e-09
-3.334916486e-10
5.207675698e-09
-2.340220316e-10
4.197965429e-09
-1.4080602e-10
3.10118567e-09
-5.445807566e-11
1.916831984e-09
6.551120067e-10
-2.261785266e-13
2.157061601e-10
-1.942570384e-12
6.504378952e-10
-5.61902312e-12
1.08813642e-09
-1.138458801e-11
1.527650048e-09
-1.934532031e-11
1.968368995e-09
-2.963874743e-11
2.409837665e-09
-4.230136508e-11
2.851583786e-09
-5.737797299e-11
3.293180104e-09
-7.487778615e-11
3.734158213e-09
-9.478028711e-11
4.174003732e-09
-1.170284721e-10
4.612136355e-09
-1.415148775e-10
5.047893147e-09
-1.680180983e-10
5.480484021e-09
-1.964524658e-10
5.909154617e-09
-2.266467053e-10
6.332910403e-09
-2.583938976e-10
6.750666995e-09
-2.914591052e-10
7.161207034e-09
-3.255853752e-10
7.563169489e-09
-3.604898663e-10
7.955039939e-09
-3.958683699e-10
8.335142136e-09
-4.313896413e-10
8.70163087e-09
-4.666950589e-10
9.052486496e-09
-5.01380748e-10
9.385511094e-09
-5.349911554e-10
9.698326586e-09
-5.669886472e-10
9.988374883e-09
-5.967200357e-10
1.025291995e-08
-6.23373494e-10
1.048905193e-08
-6.459183589e-10
1.069369285e-08
-6.632977947e-10
1.086360312e-08
-6.746510164e-10
1.099539987e-08
-6.792913824e-10
1.108558767e-08
-6.7669671e-10
1.113059177e-08
-6.665000266e-10
1.112679403e-08
-6.484942478e-10
1.107057114e-08
-6.226330535e-10
1.095833498e-08
-5.890426314e-10
1.078657451e-08
-5.480407151e-10
1.055189837e-08
-5.0016158e-10
1.025107781e-08
-4.461737928e-10
9.881088396e-09
-3.871216345e-10
9.439149865e-09
-3.24345921e-10
8.92276281e-09
-2.595245154e-10
8.329740503e-09
-1.947194226e-10
7.658235091e-09
-1.324058755e-10
6.906756355e-09
-7.554409796e-11
6.074182185e-09
-2.762763019e-11
5.159759141e-09
7.246594134e-12
4.163090855e-09
2.431753532e-11
3.084113954e-09
1.807125059e-11
1.923078796e-09
6.731830701e-10
-7.260826104e-13
2.164322414e-10
-2.565411721e-12
6.522772363e-10
-5.567840237e-12
1.091138766e-09
-9.897155359e-12
1.531979439e-09
-1.566474383e-11
1.974136584e-09
-2.292720183e-11
2.417100127e-09
-3.175296857e-11
2.860409388e-09
-4.21727091e-11
3.303600053e-09
-5.419521168e-11
3.746180491e-09
-6.780281584e-11
4.187611507e-09
-8.295769818e-11
4.62729106e-09
-9.960475799e-11
5.064540144e-09
-1.177128087e-10
5.49859241e-09
-1.371420316e-10
5.928583275e-09
-1.577591307e-10
6.353528394e-09
-1.794135435e-10
6.772320763e-09
-2.019255563e-10
7.183719417e-09
-2.25095697e-10
7.586339055e-09
-2.486960807e-10
7.978640597e-09
-2.724768071e-10
8.358922718e-09
-2.961607887e-10
8.725314781e-09
-3.194454239e-10
9.075771304e-09
-3.420024696e-10
9.408068333e-09
-3.634781107e-10
9.719802163e-09
-3.83493964e-10
1.000839067e-08
-4.016515679e-10
1.027107757e-08
-4.175390213e-10
1.050494016e-08
-4.307478531e-10
1.070690062e-08
-4.40885582e-10
1.087374156e-08
-4.476112509e-10
1.100212612e-08
-4.506474473e-10
1.108862283e-08
-4.49790197e-10
1.112973439e-08
-4.449263165e-10
1.11219301e-08
-4.360358635e-10
1.10616811e-08
-4.231985012e-10
1.094549762e-08
-4.065924586e-10
1.076996788e-08
-3.864900122e-10
1.053179689e-08
-3.63257464e-10
1.0227845e-08
-3.373336573e-10
9.855164379e-09
-3.092163338e-10
9.411032728e-09
-2.794365431e-10
8.892982966e-09
-2.485235064e-10
8.29882782e-09
-2.16967693e-10
7.626678527e-09
-1.851671384e-10
6.874956953e-09
-1.533872826e-10
6.042400475e-09
-1.216862609e-10
5.128059987e-09
-8.988827535e-11
4.131291449e-09
-5.751503562e-11
3.051741217e-09
-2.375706557e-11
1.889320885e-09
6.494258836e-10
-1.815063695e-14
2.164504032e-10
-5.347437611e-13
6.527938105e-10
-1.758178517e-12
1.092362168e-09
-3.750986822e-12
1.533972275e-09
-6.571088812e-12
1.976956601e-09
-1.026928314e-11
2.420798434e-09
-1.488789448e-11
2.865028032e-09
-2.046229151e-11
3.309174382e-09
-2.701854349e-11
3.752736962e-09
-3.457398404e-11
4.195166724e-09
-4.313232816e-11
4.635849507e-09
-5.268458266e-11
5.07409203e-09
-6.320247484e-11
5.509110894e-09
-7.463938805e-11
5.940019955e-09
-8.69301406e-11
6.365818998e-09
-9.999217949e-11
6.785382772e-09
-1.137229283e-10
7.197450492e-09
-1.280001097e-10
7.600615916e-09
-1.426777877e-10
7.99331817e-09
-1.575886887e-10
8.373833618e-09
-1.725423082e-10
8.740269179e-09
-1.873294118e-10
9.090557261e-09
-2.01713017e-10
9.422452831e-09
-2.154438522e-10
9.73353288e-09
-2.28251601e-10
1.002119885e-08
-2.398567108e-10
1.028268206e-08
-2.499700099e-10
1.051505284e-08
-2.583019831e-10
1.071523334e-08
-2.645746436e-10
1.088001428e-08
-2.685245044e-10
1.100607585e-08
-2.699147572e-10
1.109001258e-08
-2.685417412e-10
1.112836187e-08
-2.642474809e-10
1.111763606e-08
-2.569246244e-10
1.105435754e-08
-2.465225369e-10
1.093509586e-08
-2.330615957e-10
1.075650675e-08
-2.166362382e-10
1.051537163e-08
-1.97428466e-10
1.020863704e-08
-1.757165499e-10
9.833452786e-09
-1.51891241e-10
9.387207938e-09
-1.264720419e-10
8.867563505e-09
-1.001253578e-10
8.272480795e-09
-7.369049779e-11
7.600244507e-09
-4.821474526e-11
6.849479654e-09
-2.497471327e-11
6.019161431e-09
-5.532192987e-12
5.108617184e-09
8.239704401e-12
4.117519175e-09
1.411341657e-11
3.045868172e-09
9.454181195e-12
1.893979304e-09
6.588800137e-10
-2.026590523e-13
2.166530672e-10
-6.402932057e-13
6.532314593e-10
-1.322892348e-12
1.093044719e-09
-2.321382358e-12
1.53497082e-09
-3.690115137e-12
1.978325279e-09
-5.472196378e-12
2.422580603e-09
-7.703170812e-12
2.867259084e-09
-1.041164708e-11
3.311882857e-09
-1.361940972e-11
3.755944736e-09
-1.734103755e-11
4.19888809e-09
-2.158221872e-11
4.640090887e-09
-2.634192646e-11
5.078851686e-09
-3.160879991e-11
5.514377531e-09
-3.736070385e-11
5.945772056e-09
-4.356580893e-11
6.372024211e-09
-5.018061824e-11
6.79199738e-09
-5.714891674e-11
7.204418967e-09
-6.440369387e-11
7.607870677e-09
-7.186529683e-11
8.00077958e-09
-7.94420638e-11
8.381410355e-09
-8.703178319e-11
8.747858826e-09
-9.452196775e-11
9.098047526e-09
-1.017917093e-10
9.429723028e-09
-1.087150776e-10
9.74045614e-09
-1.151621055e-10
1.002764467e-08
-1.209990071e-10
1.028851956e-08
-1.261005804e-10
1.052015444e-08
-1.303464129e-10
1.071947885e-08
-1.33626502e-10
1.088329534e-08
-1.358524041e-10
1.100830042e-08
-1.369484925e-10
1.109110924e-08
-1.36870324e-10
1.112828385e-08
-1.355995134e-10
1.111636454e-08
-1.331451916e-10
1.105190401e-08
-1.29552834e-10
1.09315034e-08
-1.248957528e-10
1.075184958e-08
-1.192769226e-10
1.050975285e-08
-1.12824169e-10
1.020218414e-08
-1.056821489e-10
9.826310552e-09
-9.800212824e-11
9.379528411e-09
-8.993241252e-11
8.859492631e-09
-8.159128606e-11
8.264141576e-09
-7.306487825e-11
7.591716598e-09
-6.436137308e-11
6.840775528e-09
-5.5397298e-11
6.010199653e-09
-4.597629141e-11
5.099194058e-09
-3.573844651e-11
4.107281666e-09
-2.416033244e-11
3.034290803e-09
-1.051936383e-11
1.880338021e-09
6.483604798e-10
4.001725759e-14
2.166130564e-10
-3.887026263e-14
6.533103588e-10
-3.190803248e-13
1.09332484e-09
-8.200655528e-13
1.535471948e-09
-1.562629253e-12
1.979067834e-09
-2.566538615e-12
2.423584493e-09
-3.850248125e-12
2.868542702e-09
-5.429822304e-12
3.313462478e-09
-7.319044461e-12
3.757833976e-09
-9.528336968e-12
4.201097312e-09
-1.206414575e-11
4.642626494e-09
-1.492752565e-11
5.081715511e-09
-1.811624231e-11
5.517566119e-09
-2.162013155e-11
5.949275981e-09
-2.542340529e-11
6.375827377e-09
-2.950238748e-11
6.796076599e-09
-3.382699266e-11
7.208743436e-09
-3.835809779e-11
7.612401638e-09
-4.304819894e-11
8.005470084e-09
-4.784360213e-11
8.386205218e-09
-5.267933239e-11
8.752694799e-09
-5.748492417e-11
9.102853642e-09
-6.218390643e-11
9.434421232e-09
-6.668887344e-11
9.744962164e-09
-7.091390382e-11
1.003186912e-08
-7.476346402e-11
1.029236938e-08
-7.814337431e-11
1.052353449e-08
-8.095896085e-11
1.072229382e-08
-8.311532868e-11
1.088545183e-08
-8.452475806e-11
1.100970921e-08
-8.510189117e-11
1.109168772e-08
-8.477758421e-11
1.112795861e-08
-8.348726015e-11
1.111507407e-08
-8.11848405e-11
1.10496017e-08
-7.784182292e-11
1.092816092e-08
-7.345246354e-11
1.074745998e-08
-6.80343502e-11
1.050433427e-08
-6.163479905e-11
1.019578425e-08
-5.433547944e-11
9.81901196e-09
-4.626268538e-11
9.371455581e-09
-3.759147787e-11
8.850820474e-09
-2.855570795e-11
8.255106177e-09
-1.946718602e-11
7.582628379e-09
-1.07270034e-11
6.832034967e-09
-2.842600598e-12
6.002315532e-09
3.548108617e-12
5.092803853e-09
7.655397228e-12
4.103172371e-09
8.529839594e-12
3.033418862e-09
5.011939256e-12
1.883853854e-09
6.533731055e-10
-9.273095334e-14
2.167057948e-10
-2.728689638e-13
6.534904592e-10
-5.161813052e-13
1.093568283e-09
-8.220029492e-13
1.535777629e-09
-1.172082998e-12
1.979418017e-09
-1.533019419e-12
2.423945346e-09
-1.85389495e-12
2.868863721e-09
-2.094974532e-12
3.313703381e-09
-2.235740316e-12
3.757974638e-09
-2.271693947e-12
4.20113375e-09
-2.212262277e-12
4.64256687e-09
-2.073580564e-12
5.081576429e-09
-1.875245302e-12
5.517368466e-09
-1.64018515e-12
5.949039844e-09
-1.379296489e-12
6.375567307e-09
-1.118214185e-12
6.795815191e-09
-8.830951379e-13
7.20850847e-09
-7.034004083e-13
7.612222444e-09
-6.08897493e-13
8.00537523e-09
-6.250414732e-13
8.386221047e-09
-7.739850314e-13
8.752844373e-09
-1.076659835e-12
9.103155684e-09
-1.544717828e-12
9.4348893e-09
-2.185924459e-12
9.745603578e-09
-3.000835621e-12
1.003268417e-08
-3.981946148e-12
1.029335045e-08
-5.112619742e-12
1.052466539e-08
-6.368806449e-12
1.072354923e-08
-7.713377211e-12
1.088679714e-08
-9.104535997e-12
1.10111005e-08
-1.049028122e-11
1.109307242e-08
-1.180709307e-11
1.11292765e-08
-1.299305245e-11
1.111625897e-08
-1.397191503e-11
1.10505811e-08
-1.476316497e-11
1.09289526e-08
-1.538793713e-11
1.074808485e-08
-1.587137315e-11
1.050481749e-08
-1.624002509e-11
1.019615307e-08
-1.652141291e-11
9.819292398e-09
-1.673198057e-11
9.37166757e-09
-1.688392666e-11
8.85097127e-09
-1.695971429e-11
8.255182137e-09
-1.691568661e-11
7.582584764e-09
-1.666518334e-11
6.831784117e-09
-1.606306762e-11
6.001713436e-09
-1.489541647e-11
5.09163586e-09
-1.286109947e-11
4.101139311e-09
-9.568597572e-12
3.030125081e-09
-4.50724149e-12
1.87879393e-09
6.488651549e-10
-1.305534068e-14
2.167188641e-10
-1.337101747e-13
6.536111025e-10
-3.809491039e-13
1.093815467e-09
-7.400845136e-13
1.536136905e-09
-1.193480414e-12
1.979871167e-09
-1.718851629e-12
2.424470838e-09
-2.292377299e-12
2.86943727e-09
-2.891696723e-12
3.314302673e-09
-3.498683881e-12
3.758581632e-09
-4.10026747e-12
4.201735304e-09
-4.688384584e-12
4.643154877e-09
-5.259132874e-12
5.082147448e-09
-5.814072565e-12
5.517923124e-09
-6.35613466e-12
5.94958246e-09
-6.894721702e-12
6.376105708e-09
-7.437788269e-12
6.796357962e-09
-7.993568786e-12
7.209064619e-09
-8.572746389e-12
7.612800906e-09
-9.180577275e-12
8.005984196e-09
-9.827364892e-12
8.386867032e-09
-1.051352923e-11
8.753531346e-09
-1.124300144e-11
9.103884144e-09
-1.200826744e-11
9.43565545e-09
-1.28035163e-11
9.746398708e-09
-1.36134408e-11
1.003349421e-08
-1.441935773e-11
1.029415577e-08
-1.519438903e-11
1.052544104e-08
-1.591094473e-11
1.072426551e-08
-1.653463079e-11
1.088742074e-08
-1.703077018e-11
1.101159617e-08
-1.736347568e-11
1.109340518e-08
-1.750035756e-11
1.11294146e-08
-1.741984345e-11
1.111617759e-08
-1.710659449e-11
1.105026693e-08
-1.652798019e-11
1.09283754e-08
-1.566240772e-11
1.074721912e-08
-1.449070948e-11
1.050364536e-08
-1.30052835e-11
1.019466683e-08
-1.120932213e-11
9.817497529e-09
-9.128197918e-12
9.369586502e-09
-6.804814443e-12
8.848648124e-09
-4.312437107e-12
8.252688333e-09
-1.752220755e-12
7.580025798e-09
7.23373048e-13
6.829307398e-09
2.920202475e-12
5.999517366e-09
4.57651737e-12
5.089979433e-09
5.36324125e-12
4.100352019e-09
4.872590935e-12
3.030616054e-09
2.603697765e-12
1.881063027e-09
6.51468867e-10
-2.88329213e-14
2.167476935e-10
-6.241526715e-14
6.536446779e-10
-8.459767021e-14
1.093837661e-09
-9.435194819e-14
1.53614666e-09
-8.681086803e-14
1.979863645e-09
-5.49843137e-14
2.424438933e-09
8.899183339e-15
2.869373494e-09
1.127483153e-13
3.314198659e-09
2.656987781e-13
3.758428936e-09
4.741255515e-13
4.201526658e-09
7.43947511e-13
4.642885249e-09
1.075804066e-12
5.081815316e-09
1.467033484e-12
5.517532313e-09
1.903816432e-12
5.94914516e-09
2.364488373e-12
6.375645325e-09
2.830324492e-12
6.795891945e-09
3.289493796e-12
7.208605581e-09
3.731512043e-12
7.612358816e-09
4.14856826e-12
8.005567332e-09
4.533052443e-12
8.386482301e-09
4.880655563e-12
8.753184369e-09
5.18384212e-12
9.103579515e-09
5.443673071e-12
9.435397201e-09
5.650702792e-12
9.746191015e-09
5.802639041e-12
1.003334236e-08
5.891066643e-12
1.029406724e-08
5.905265701e-12
1.052542655e-08
5.830385437e-12
1.072434011e-08
5.647226498e-12
1.088760437e-08
5.329541479e-12
1.101191372e-08
4.849976985e-12
1.109388557e-08
4.174931653e-12
1.113008852e-08
3.279391426e-12
1.111707347e-08
2.134642259e-12
1.105141163e-08
8.158329805e-13
1.092969439e-08
-6.101997762e-13
1.074864477e-08
-2.073842838e-12
1.050510998e-08
-3.512766671e-12
1.019610446e-08
-4.860295607e-12
9.818845922e-09
-6.062656782e-12
9.37078867e-09
-7.067996598e-12
8.849653372e-09
-7.831069051e-12
8.253452166e-09
-8.314494868e-12
7.580508307e-09
-8.475920196e-12
6.829470654e-09
-8.291970853e-12
5.999331588e-09
-7.695312433e-12
5.089383606e-09
-6.590410621e-12
4.099248087e-09
-4.839668752e-12
3.028864197e-09
-2.252253287e-12
1.878475521e-09
6.492170028e-10
-5.83382058e-15
2.16753532e-10
-5.862903442e-14
6.536974709e-10
-1.642763292e-13
1.093943275e-09
-3.139326376e-13
1.536296425e-09
-4.984206421e-13
1.980048031e-09
-7.070119914e-13
2.424647418e-09
-9.275465853e-13
2.869594254e-09
-1.148581186e-12
3.314419755e-09
-1.358455511e-12
3.758638551e-09
-1.544594849e-12
4.201712892e-09
-1.695093119e-12
4.64303575e-09
-1.796133736e-12
5.081916319e-09
-1.830231136e-12
5.517566787e-09
-1.781901176e-12
5.949096459e-09
-1.638592101e-12
6.375502025e-09
-1.397337857e-12
6.795650673e-09
-1.062300658e-12
7.208270965e-09
-6.467119047e-13
7.611943062e-09
-1.688175977e-13
8.005089557e-09
3.457607286e-13
8.385967571e-09
8.678090325e-13
8.752662387e-09
1.364145311e-12
9.103082999e-09
1.801300483e-12
9.434960112e-09
2.145337982e-12
9.745846616e-09
2.366937078e-12
1.003312128e-08
2.438495633e-12
1.029399553e-08
2.340801993e-12
1.052552385e-08
2.063637927e-12
1.072461774e-08
1.604672329e-12
1.088806335e-08
9.748775745e-13
1.101254289e-08
2.015943297e-13
1.109465954e-08
-6.753088269e-13
1.113096561e-08
-1.596100662e-12
1.111799409e-08
-2.47757641e-12
1.10522931e-08
-3.259832967e-12
1.093047843e-08
-3.883052697e-12
1.074926578e-08
-4.278797867e-12
1.050550741e-08
-4.406565876e-12
1.019623074e-08
-4.234705869e-12
9.818675355e-09
-3.774003161e-12
9.370327081e-09
-3.05721479e-12
8.848937043e-09
-2.139434468e-12
8.252533891e-09
-1.091818144e-12
7.579460408e-09
-6.362861391e-15
6.82838584e-09
1.011688012e-12
5.998312732e-09
1.831085289e-12
5.088564103e-09
2.282250994e-12
4.098799058e-09
2.145363655e-12
3.028998558e-09
1.168946503e-12
1.879453099e-09
6.503860684e-10
-4.365492164e-14
2.167971796e-10
-1.482017641e-13
6.53802045e-10
-3.04519901e-13
1.094099588e-09
-5.108939359e-13
1.536502759e-09
-7.636649619e-13
1.980300792e-09
-1.057465583e-12
2.424941362e-09
-1.386213394e-12
2.869922832e-09
-1.740545913e-12
3.314774244e-09
-2.109769335e-12
3.759007714e-09
-2.479841139e-12
4.202082815e-09
-2.83341844e-12
4.643389661e-09
-3.15220883e-12
5.082234592e-09
-3.41227622e-12
5.517827301e-09
-3.591323425e-12
5.94927546e-09
-3.665026135e-12
6.375575538e-09
-3.611953493e-12
6.795597749e-09
-3.416216131e-12
7.208075265e-09
-3.067117027e-12
7.611594014e-09
-2.561440038e-12
8.004583232e-09
-1.90043047e-12
8.385307105e-09
-1.096079607e-12
8.751857962e-09
-1.642867651e-13
9.10215132e-09
8.7215564e-13
9.433923438e-09
1.987494063e-12
9.744731441e-09
3.151448884e-12
1.003195673e-08
4.336305416e-12
1.029281162e-08
5.510071266e-12
1.052434993e-08
6.646405624e-12
1.072348112e-08
7.721440579e-12
1.088698853e-08
8.713885863e-12
1.101155149e-08
9.601483674e-12
1.109377125e-08
1.036664344e-11
1.113020052e-08
1.098390472e-11
1.111737611e-08
1.142248054e-11
1.105185479e-08
1.165024363e-11
1.093025101e-08
1.164055438e-11
1.074927583e-08
1.137179983e-11
1.050577575e-08
1.083135603e-11
1.019677089e-08
1.001617696e-11
9.819491133e-09
8.934222302e-12
9.37140965e-09
7.610284612e-12
8.850260352e-09
6.094555672e-12
8.254048805e-09
4.465019932e-12
7.581091532e-09
2.817266693e-12
6.830032085e-09
1.293419351e-12
5.999837377e-09
2.105811902e-14
5.089835653e-09
-8.595800898e-13
4.099680369e-09
-1.186462558e-12
3.029326066e-09
-7.606364055e-13
1.879025985e-09
6.496258634e-10
-2.013640065e-14
2.168173227e-10
-8.973031036e-14
6.538716415e-10
-1.955682597e-13
1.094205411e-09
-3.099727129e-13
1.536617179e-09
-3.95561961e-13
1.980386398e-09
-4.02812518e-13
2.424948525e-09
-2.661517091e-13
2.869786312e-09
6.824357832e-14
3.314439688e-09
6.353397539e-13
3.758440774e-09
1.452212913e-12
4.201265598e-09
2.523502666e-12
4.642318754e-09
3.837469425e-12
5.080920364e-09
5.370623819e-12
5.516294432e-09
7.087758886e-12
5.947558034e-09
8.952323158e-12
6.373710834e-09
1.092579953e-11
6.793624513e-09
1.296898182e-11
7.206032455e-09
1.504265221e-11
7.609519956e-09
1.71106399e-11
8.002515123e-09
1.91372664e-11
8.383280855e-09
2.108702737e-11
8.749908147e-09
2.292704062e-11
9.100311325e-09
2.462440353e-11
9.432225361e-09
2.615117473e-11
9.743206017e-09
2.747407786e-11
1.00306328e-08
2.857001924e-11
1.029171558e-08
2.941605015e-11
1.052350473e-08
2.999127647e-11
1.072290522e-08
3.028552056e-11
1.088669478e-08
3.02902402e-11
1.101154601e-08
3.001003467e-11
1.109405245e-08
2.944954689e-11
1.113076095e-08
2.861767204e-11
1.111820757e-08
2.752477974e-11
1.105294796e-08
2.61817296e-11
1.093159398e-08
2.460466279e-11
1.075085213e-08
2.281985131e-11
1.050756189e-08
2.085623821e-11
1.019873352e-08
1.876420744e-11
9.821583929e-09
1.66030192e-11
9.373569671e-09
1.444646619e-11
8.85241627e-09
1.235357873e-11
8.256143301e-09
1.035917558e-11
7.58308553e-09
8.489387764e-12
6.831901573e-09
6.742829846e-12
6.001583606e-09
5.11813592e-12
5.091460344e-09
3.608497476e-12
4.101190268e-09
2.198607353e-12
3.03073636e-09
8.586790229e-13
1.880364126e-09
6.504854983e-10
-4.005673608e-14
2.168573774e-10
-1.364171709e-13
6.539680447e-10
-2.681090012e-13
1.094337062e-09
-4.146046743e-13
1.536763649e-09
-5.50997749e-13
1.980522791e-09
-6.490002345e-13
2.425046475e-09
-6.789311507e-13
2.869816273e-09
-6.126180698e-13
3.314373422e-09
-4.263811641e-13
3.758254278e-09
-1.020337796e-13
4.200941364e-09
3.696925104e-13
4.641847044e-09
9.904336423e-13
5.080299858e-09
1.752537211e-12
5.515532223e-09
2.641518955e-12
5.946668828e-09
3.637132409e-12
6.37271547e-09
4.71320709e-12
6.792548316e-09
5.842255781e-12
7.204903597e-09
6.994351636e-12
7.608367836e-09
8.140681636e-12
8.001368963e-09
9.252598658e-12
8.382168511e-09
1.030583785e-11
8.748855191e-09
1.12764849e-11
9.099340429e-09
1.214621464e-11
9.431355919e-09
1.2897897e-11
9.74245407e-09
1.351975938e-11
1.003001107e-08
1.400193024e-11
1.029123374e-08
1.433643042e-11
1.052316974e-08
1.452004291e-11
1.07227217e-08
1.454911481e-11
1.088666548e-08
1.442326282e-11
1.101167232e-08
1.414094601e-11
1.109433485e-08
1.370377919e-11
1.11311975e-08
1.312122495e-11
1.11187907e-08
1.240428112e-11
1.10536653e-08
1.156767552e-11
1.093242941e-08
1.063370206e-11
1.075178666e-08
9.621416589e-12
1.050857457e-08
8.551292745e-12
1.019980231e-08
7.448669282e-12
9.822686661e-09
6.334400629e-12
9.374685224e-09
5.223333256e-12
8.853525892e-09
4.134722241e-12
8.257231483e-09
3.084218356e-12
7.584139047e-09
2.07762389e-12
6.832906436e-09
1.155285663e-12
6.002506168e-09
3.695051399e-13
5.092246681e-09
-2.077741631e-13
4.101767183e-09
-4.841279006e-13
3.031012674e-09
-3.520178503e-13
1.880232004e-09
6.50133886e-10
-1.068027782e-14
2.168680498e-10
-4.827396421e-14
6.54005662e-10
-1.093067625e-13
1.094398068e-09