/*--------------------------------*- C++ -*----------------------------------*\
| =========                 |                                                 |
| \\      /  F ield         | OpenFOAM: The Open Source CFD Toolbox           |
|  \\    /   O peration     | Version:  5.x                                   |
|   \\  /    A nd           | Web:      www.OpenFOAM.org                      |
|    \\/     M anipulation  |                                                 |
\*---------------------------------------------------------------------------*/
FoamFile
{
    version     2.0;
    format      ascii;
    class       volScalarField;
    location    "0.01";
    object      pSat;
}
// * * * * * * * * * * * * * * * * * * * * * * * * * * * * * * * * * * * * * //

dimensions      [1 -1 -2 0 0 0 0];

internalField   nonuniform List<scalar> 
7950
(
3.829236614e-17
3.930656122e-17
4.163549732e-17
4.544800303e-17
5.112033175e-17
5.926148577e-17
7.082255298e-17
8.728634759e-17
1.109897293e-16
1.456783138e-16
1.974797615e-16
2.766496352e-16
4.007783048e-16
6.008307924e-16
9.328234759e-16
1.50102131e-15
2.505343235e-15
4.341118955e-15
7.815468246e-15
1.463155248e-14
2.850778859e-14
5.785161447e-14
1.223672171e-13
2.699604212e-13
6.215378261e-13
1.494043336e-12
3.750765348e-12
9.835479429e-12
2.693767395e-11
7.703399133e-11
2.298882399e-10
7.153024726e-10
2.317862007e-09
7.809887007e-09
2.731077001e-08
9.889135351e-08
3.697825545e-07
1.423476588e-06
5.621440816e-06
2.268546026e-05
9.31540468e-05
0.0003874531648
0.001624377024
0.006829570109
0.02864559606
0.1192233344
0.4897566613
1.975254557
7.781513133
29.79745226
0.0001211535228
0.000122561529
0.0001257163149
0.0001306645371
0.0001375937615
0.0001467875596
0.000158639212
0.0001736780957
0.000192607931
0.00021636009
0.0002461673028
0.0002836655862
0.0003310356509
0.0003911999913
0.0004680990477
0.0005670803655
0.0006954501794
0.0008632597876
0.001084433143
0.001378392868
0.001772417853
0.002305079576
0.003031275628
0.004029637242
0.005413477233
0.007347033118
0.01006964816
0.01393187207
0.01944947733
0.02738440774
0.03886618197
0.05557395567
0.0800092637
0.1159037343
0.1688265137
0.2470849059
0.3630512391
0.5351015357
0.7904184475
1.168990625
1.729225766
2.555666716
3.769322302
5.541031943
8.107970092
11.79270858
17.02298814
24.34827685
34.44613314
48.10736319
0.2385675214
0.2398300054
0.2426295688
0.2469422396
0.2528298073
0.2603893623
0.2697505634
0.2810777618
0.2945739311
0.3104859451
0.3291112112
0.3508058207
0.3759944533
0.4051823466
0.4389697052
0.4780690054
0.5233257334
0.5757431986
0.6365121713
0.7070462212
0.7890237713
0.8844380286
0.9956561118
1.125488851
1.277272881
1.454966781
1.663263079
1.90771796
2.194900414
2.532562274
2.929830158
3.397419502
3.947869756
4.595798169
5.358167383
6.25455918
7.307443111
8.542424329
9.988449814
11.67794652
13.64685893
15.93454804
18.58350896
21.63886227
25.14757555
29.15737828
33.71534784
38.86616805
44.65009717
51.10073002
4.346440522
4.357379167
4.381525332
4.418428307
4.468247164
4.53129871
4.608013768
4.698929155
4.804687954
4.926042893
5.063861371
5.219131636
5.392969895
5.586628242
5.801503328
6.039145702
6.301269738
6.589764048
6.906702258
7.25435398
7.635195784
8.051921923
8.507454497
9.004952703
9.547820728
10.13971378
10.78454166
11.48646921
12.24991288
13.07953255
13.98021775
14.95706721
16.01536081
17.16052291
18.39807591
19.7335833
21.17258126
22.72049824
24.38256222
26.16369561
28.06839838
30.10062031
32.2636242
34.55984217
36.9907284
39.55661186
42.25655389
45.08821542
48.04773966
51.12965567
15.39217988
15.4110061
15.45247496
15.5156179
15.60041589
15.70701721
15.83565681
15.98663586
16.16031405
16.35710584
16.57747804
16.82194794
17.09108138
17.38549089
17.7058335
18.0528082
18.42715314
18.82964221
19.26108125
19.72230357
20.21416489
20.73753753
21.29330389
21.88234904
22.50555254
23.16377929
23.85786943
24.58862731
25.35680947
26.16311169
27.00815503
27.89247102
28.81648609
29.78050521
30.78469495
31.82906625
32.91345678
34.03751353
35.2006755
36.40215713
37.64093252
38.91572099
40.22497424
41.5668655
42.93928109
44.33981476
45.76576502
47.21413602
48.68164193
50.16471533
27.38816467
27.40463109
27.4408648
27.49593807
27.5697131
27.66215745
27.77327328
27.90307906
28.05160253
28.21887694
28.40493862
28.6098249
28.83357223
29.07621423
29.33777979
29.61829098
29.91776085
30.23619116
30.57356992
30.92986884
31.30504063
31.69901624
32.11170189
32.54297614
32.99268677
33.46064768
33.94663567
34.45038734
34.97159583
35.50990774
36.06492009
36.63617733
37.22316861
37.8253251
38.44201769
39.07255482
39.71618075
40.3720741
41.03934682
41.71704363
42.40414195
43.09955228
43.80211925
44.51062312
45.22378204
45.94025481
46.65864433
47.37750164
48.09533068
48.81059351
35.55925158
35.56982848
35.59309095
35.62841793
35.67568334
35.73481636
35.80575625
35.88844076
35.98280197
36.08876421
36.20624286
36.33514351
36.47536129
36.6267802
36.78927253
36.96269827
37.14690455
37.34172501
37.54697923
37.76247214
37.98799343
38.22331698
38.4682003
38.72238399
38.98559124
39.25752733
39.53787921
39.82631514
40.12248433
40.4260167
40.7365227
41.05359316
41.37679936
41.705693
42.03980647
42.37865308
42.72172751
43.06850629
43.41844847
43.7709964
44.12557661
44.48160084
44.83846727
45.1955617
45.55225909
45.90792502
46.2619174
46.61358822
46.96228546
47.30735502
39.71323043
39.71909664
39.73199542
39.7515755
39.77775679
39.81048654
39.84971435
39.89538592
39.94744079
40.00581139
40.07042255
40.14119119
40.21802618
40.30082822
40.38948972
40.48389481
40.58391923
40.68943034
40.8002871
40.91634008
41.03743145
41.16339503
41.29405634
41.42923263
41.56873301
41.71235852
41.85990229
42.01114965
42.16587833
42.32385865
42.48485378
42.64861994
42.81490675
42.98345751
43.15400957
43.3262947
43.5000395
43.67496586
43.85079144
44.02723014
44.2039927
44.38078722
44.55731975
44.73329498
44.9084168
45.08238904
45.25491613
45.42570379
45.59445981
45.76089474
41.20692509
41.20995466
41.21661536
41.22672405
41.24023679
41.25712294
41.27735224
41.30089167
41.32770429
41.3577488
41.39097933
41.42734536
41.46679169
41.50925844
41.55468107
41.60299046
41.65411295
41.70797036
41.76448015
41.82355544
41.88510516
41.94903408
42.015243
42.08362882
42.1540847
42.22650017
42.30076132
42.37675089
42.45434852
42.53343087
42.61387183
42.69554268
42.77831236
42.86204761
42.94661325
43.03187237
43.11768661
43.20391637
43.29042109
43.37705949
43.46368986
43.55017034
43.63635917
43.72211501
43.8072972
43.89176608
43.97538326
44.05801193
44.13951715
44.21976617
41.23015294
41.23166365
41.23498483
41.24002475
41.24676085
41.25517702
41.26525715
41.27698355
41.29033639
41.30529352
41.32183036
41.33991986
41.35953251
41.38063639
41.40319715
41.42717809
41.4525402
41.4792422
41.50724061
41.53648983
41.56694217
41.59854796
41.63125562
41.66501171
41.69976107
41.73544686
41.77201067
41.80939264
41.84753153
41.88636482
41.92582886
41.96585891
42.00638935
42.04735369
42.08868476
42.13031483
42.17217568
42.21419879
42.25631542
42.29845676
42.34055408
42.3825388
42.42434268
42.46589795
42.5071374
42.54799455
42.58840376
42.62830037
42.66762086
42.7063029
40.51332076
40.51406112
40.51568869
40.51815841
40.52145909
40.52558261
40.53052083
40.5362648
40.54280446
40.55012857
40.55822467
40.56707906
40.57667682
40.58700179
40.59803662
40.6097628
40.62216066
40.63520941
40.64888722
40.66317117
40.67803737
40.69346095
40.70941613
40.72587626
40.74281386
40.76020065
40.77800766
40.79620522
40.81476303
40.83365024
40.85283547
40.87228689
40.89197228
40.91185907
40.93191441
40.95210525
40.97239835
40.99276041
41.01315807
41.03355801
41.05392702
41.074232
41.09444012
41.11451879
41.13443578
41.15415927
41.17365789
41.19290079
41.21185772
41.23049907
39.44952243
39.44988213
39.45067287
39.45187274
39.45347625
39.45547942
39.45787823
39.46066826
39.46384454
39.46740152
39.47133306
39.47563238
39.48029212
39.48530432
39.49066042
39.49635129
39.50236726
39.50869809
39.51533304
39.52226085
39.52946977
39.53694762
39.54468175
39.55265908
39.56086617
39.56928918
39.57791395
39.58672598
39.59571049
39.60485245
39.61413655
39.62354733
39.6330691
39.64268604
39.65238223
39.66214162
39.67194812
39.68178563
39.69163801
39.70148916
39.71132307
39.72112379
39.73087549
39.74056251
39.75016935
39.75968072
39.76908158
39.77835715
39.78749293
39.79647475
38.23806596
38.23823997
38.23862248
38.23920289
38.23997854
38.2409475
38.2421078
38.24345729
38.24499354
38.24671386
38.24861524
38.25069437
38.25294769
38.25537129
38.25796101
38.26071241
38.26362078
38.26668113
38.26988823
38.27323661
38.27672056
38.28033415
38.28407123
38.28792545
38.29189028
38.29595901
38.30012477
38.30438052
38.3087191
38.31313321
38.31761547
38.32215836
38.3267543
38.33139565
38.3360747
38.3407837
38.34551487
38.35026045
38.35501264
38.35976369
38.36450586
38.36923148
38.37393293
38.37860266
38.38323321
38.38781724
38.39234751
38.39681692
38.40121851
38.40554547
36.976942
36.97702599
36.97721061
36.97749076
36.97786513
36.97833281
36.97889282
36.97954414
36.98028558
36.98111584
36.98203346
36.98303685
36.98412426
36.98529382
36.9865435
36.98787116
36.9892745
36.99075113
36.9922985
36.99391397
36.99559477
36.99733804
36.99914079
37.00099997
37.00291241
37.00487487
37.00688402
37.00893646
37.01102874
37.01315734
37.01531866
37.01750911
37.01972501
37.02196267
37.02421837
37.02648839
37.02876896
37.03105634
37.03334677
37.03563652
37.03792186
37.0401991
37.04246455
37.04471459
37.04694563
37.04915413
37.05133661
37.05348966
37.05560992
37.05769413
35.71336703
35.71340752
35.71349653
35.71363159
35.71381208
35.71403754
35.71430752
35.71462152
35.71497896
35.71537922
35.71582158
35.71630529
35.71682949
35.71739329
35.7179957
35.71863569
35.71931215
35.72002392
35.72076978
35.72154844
35.72235858
35.72319881
35.72406769
35.72496375
35.72588545
35.72683124
35.7277995
35.7287886
35.72979687
35.73082261
35.7318641
35.73291959
35.73398732
35.7350655
35.73615234
35.73724605
35.73834481
35.73944682
35.74055027
35.74165335
35.74275428
35.74385128
35.74494257
35.7460264
35.74710105
35.74816482
35.74921602
35.75025302
35.7512742
35.75227799
34.46962574
34.46964525
34.46968813
34.46975321
34.46984017
34.46994879
34.47007887
34.47023015
34.47040236
34.4705952
34.47080833
34.47104137
34.47129392
34.47156555
34.47185577
34.4721641
34.47249
34.4728329
34.47319222
34.47356734
34.47395763
34.4743624
34.47478097
34.47521263
34.47565663
34.47611223
34.47657866
34.47705511
34.4775408
34.47803489
34.47853656
34.47904497
34.47955926
34.48007859
34.48060207
34.48112886
34.48165807
34.48218884
34.4827203
34.48325157
34.4837818
34.48431013
34.4848357
34.48535767
34.48587521
34.48638751
34.48689374
34.48739313
34.4878849
34.48836828
33.25588827
33.25589767
33.25591832
33.25594966
33.25599154
33.25604386
33.25610651
33.25617937
33.25626231
33.25635518
33.25645783
33.25657006
33.25669169
33.25682251
33.25696228
33.25711078
33.25726773
33.25743287
33.25760592
33.25778658
33.25797453
33.25816947
33.25837105
33.25857893
33.25879275
33.25901216
33.25923678
33.25946623
33.25970012
33.25993806
33.26017964
33.26042447
33.26067214
33.26092222
33.26117431
33.26142798
33.26168282
33.26193841
33.26219433
33.26245016
33.26270548
33.26295989
33.26321296
33.26346431
33.26371352
33.2639602
33.26420397
33.26444444
33.26468123
33.26491399
32.07647438
32.0764789
32.07648884
32.07650393
32.0765241
32.07654929
32.07657945
32.07661454
32.07665447
32.07669919
32.07674861
32.07680265
32.07686122
32.0769242
32.0769915
32.077063
32.07713857
32.07721808
32.0773014
32.07738839
32.07747888
32.07757274
32.07766979
32.07776988
32.07787283
32.07797847
32.07808662
32.07819709
32.0783097
32.07842426
32.07854057
32.07865845
32.07877768
32.07889809
32.07901945
32.07914158
32.07926427
32.07938732
32.07951053
32.07963369
32.07975661
32.07987909
32.08000092
32.08012192
32.08024189
32.08036064
32.08047798
32.08059374
32.08070773
32.08081977
30.93289317
30.93289535
30.93290014
30.9329074
30.93291711
30.93292924
30.93294376
30.93296065
30.93297987
30.9330014
30.93302519
30.93305121
30.9330794
30.93310972
30.93314212
30.93317654
30.93321292
30.9332512
30.93329131
30.93333318
30.93337674
30.93342193
30.93346865
30.93351683
30.93356639
30.93361725
30.93366931
30.93372249
30.9337767
30.93383184
30.93388784
30.93394458
30.93400198
30.93405994
30.93411836
30.93417716
30.93423622
30.93429545
30.93435476
30.93441405
30.93447322
30.93453218
30.93459083
30.93464908
30.93470683
30.934764
30.93482049
30.93487621
30.93493108
30.93498502
29.82531249
29.82531354
29.82531584
29.82531934
29.82532401
29.82532985
29.82533684
29.82534497
29.82535422
29.82536458
29.82537604
29.82538856
29.82540213
29.82541672
29.82543232
29.82544888
29.8254664
29.82548482
29.82550413
29.82552428
29.82554525
29.825567
29.82558949
29.82561268
29.82563653
29.82566101
29.82568607
29.82571167
29.82573776
29.82576431
29.82579126
29.82581857
29.8258462
29.8258741
29.82590222
29.82593052
29.82595894
29.82598746
29.826016
29.82604454
29.82607302
29.8261014
29.82612963
29.82615767
29.82618547
29.82621298
29.82624017
29.82626699
29.82629341
29.82631937
28.75326783
28.75326834
28.75326945
28.75327113
28.75327338
28.75327619
28.75327955
28.75328346
28.75328792
28.7532929
28.75329841
28.75330444
28.75331097
28.753318
28.7533255
28.75333348
28.7533419
28.75335077
28.75336006
28.75336976
28.75337986
28.75339032
28.75340115
28.75341231
28.75342379
28.75343557
28.75344763
28.75345995
28.75347251
28.75348528
28.75349825
28.7535114
28.7535247
28.75353812
28.75355166
28.75356528
28.75357896
28.75359268
28.75360642
28.75362016
28.75363386
28.75364752
28.75366111
28.7536746
28.75368798
28.75370123
28.75371431
28.75372722
28.75373993
28.75375243
27.71600387
27.71600411
27.71600464
27.71600545
27.71600654
27.71600789
27.71600951
27.71601139
27.71601353
27.71601593
27.71601859
27.71602149
27.71602463
27.71602801
27.71603162
27.71603546
27.71603951
27.71604378
27.71604825
27.71605292
27.71605778
27.71606282
27.71606803
27.7160734
27.71607892
27.71608459
27.7160904
27.71609633
27.71610237
27.71610852
27.71611476
27.71612109
27.71612749
27.71613395
27.71614046
27.71614702
27.7161536
27.71616021
27.71616682
27.71617343
27.71618003
27.7161866
27.71619314
27.71619963
27.71620607
27.71621245
27.71621875
27.71622496
27.71623108
27.71623709
26.71263875
26.71263887
26.71263913
26.71263952
26.71264004
26.71264069
26.71264147
26.71264237
26.7126434
26.71264456
26.71264584
26.71264723
26.71264874
26.71265037
26.71265211
26.71265396
26.71265591
26.71265796
26.71266012
26.71266236
26.7126647
26.71266712
26.71266963
26.71267222
26.71267488
26.71267761
26.7126804
26.71268325
26.71268616
26.71268912
26.71269213
26.71269517
26.71269825
26.71270136
26.7127045
26.71270765
26.71271082
26.712714
26.71271719
26.71272037
26.71272355
26.71272671
26.71272986
26.71273299
26.71273609
26.71273916
26.71274219
26.71274518
26.71274813
26.71275102
25.74224296
25.74224302
25.74224314
25.74224333
25.74224358
25.74224389
25.74224427
25.74224471
25.7422452
25.74224576
25.74224637
25.74224704
25.74224777
25.74224855
25.74224939
25.74225028
25.74225122
25.74225221
25.74225324
25.74225432
25.74225545
25.74225662
25.74225782
25.74225907
25.74226035
25.74226166
25.74226301
25.74226438
25.74226578
25.7422672
25.74226865
25.74227012
25.7422716
25.7422731
25.74227461
25.74227613
25.74227766
25.74227919
25.74228072
25.74228226
25.74228379
25.74228532
25.74228683
25.74228834
25.74228984
25.74229132
25.74229279
25.74229424
25.74229566
25.74229707
24.80387702
24.80387705
24.80387711
24.8038772
24.80387732
24.80387747
24.80387765
24.80387786
24.8038781
24.80387837
24.80387866
24.80387898
24.80387933
24.80387971
24.80388011
24.80388054
24.80388099
24.80388146
24.80388196
24.80388248
24.80388302
24.80388358
24.80388416
24.80388476
24.80388537
24.803886
24.80388665
24.8038873
24.80388798
24.80388866
24.80388935
24.80389006
24.80389077
24.80389148
24.80389221
24.80389293
24.80389366
24.80389439
24.80389513
24.80389586
24.80389659
24.80389732
24.80389804
24.80389876
24.80389947
24.80390017
24.80390086
24.80390155
24.80390222
24.80390288
23.89660936
23.89660937
23.8966094
23.89660944
23.8966095
23.89660957
23.89660966
23.89660976
23.89660987
23.89661
23.89661014
23.8966103
23.89661047
23.89661065
23.89661084
23.89661104
23.89661126
23.89661149
23.89661173
23.89661198
23.89661224
23.8966125
23.89661278
23.89661307
23.89661336
23.89661367
23.89661398
23.89661429
23.89661462
23.89661494
23.89661528
23.89661561
23.89661595
23.8966163
23.89661665
23.896617
23.89661735
23.8966177
23.89661805
23.8966184
23.89661875
23.8966191
23.89661945
23.8966198
23.89662014
23.89662048
23.89662081
23.89662114
23.89662147
23.89662179
23.01952459
23.01952459
23.01952461
23.01952463
23.01952466
23.01952469
23.01952473
23.01952478
23.01952484
23.0195249
23.01952497
23.01952504
23.01952512
23.01952521
23.0195253
23.0195254
23.0195255
23.01952561
23.01952573
23.01952585
23.01952597
23.0195261
23.01952624
23.01952638
23.01952652
23.01952666
23.01952681
23.01952696
23.01952712
23.01952728
23.01952744
23.0195276
23.01952776
23.01952793
23.0195281
23.01952827
23.01952843
23.0195286
23.01952877
23.01952894
23.01952911
23.01952928
23.01952945
23.01952962
23.01952978
23.01952994
23.01953011
23.01953027
23.01953042
23.01953058
22.1717273
22.1717273
22.17172731
22.17172732
22.17172733
22.17172735
22.17172737
22.17172739
22.17172742
22.17172745
22.17172748
22.17172752
22.17172756
22.1717276
22.17172764
22.17172769
22.17172774
22.17172779
22.17172785
22.17172791
22.17172797
22.17172803
22.1717281
22.17172816
22.17172823
22.1717283
22.17172837
22.17172845
22.17172852
22.1717286
22.17172868
22.17172876
22.17172884
22.17172892
22.171729
22.17172908
22.17172916
22.17172924
22.17172933
22.17172941
22.17172949
22.17172957
22.17172965
22.17172974
22.17172982
22.1717299
22.17172997
22.17173005
22.17173013
22.1717302
21.35234356
21.35234356
21.35234357
21.35234357
21.35234358
21.35234359
21.3523436
21.35234361
21.35234362
21.35234363
21.35234365
21.35234367
21.35234369
21.35234371
21.35234373
21.35234375
21.35234378
21.3523438
21.35234383
21.35234386
21.35234389
21.35234392
21.35234395
21.35234398
21.35234402
21.35234405
21.35234409
21.35234412
21.35234416
21.3523442
21.35234424
21.35234428
21.35234432
21.35234436
21.3523444
21.35234444
21.35234448
21.35234452
21.35234456
21.3523446
21.35234464
21.35234468
21.35234473
21.35234477
21.35234481
21.35234485
21.35234489
21.35234493
21.35234496
21.352345
20.56052143
20.56052143
20.56052143
20.56052143
20.56052143
20.56052144
20.56052144
20.56052145
20.56052145
20.56052146
20.56052147
20.56052148
20.56052149
20.5605215
20.56052151
20.56052152
20.56052153
20.56052154
20.56052156
20.56052157
20.56052159
20.5605216
20.56052162
20.56052163
20.56052165
20.56052167
20.56052168
20.5605217
20.56052172
20.56052174
20.56052176
20.56052178
20.5605218
20.56052182
20.56052184
20.56052186
20.56052188
20.5605219
20.56052193
20.56052195
20.56052197
20.56052199
20.56052202
20.56052204
20.56052206
20.56052209
20.56052211
20.56052214
20.56052216
20.56052219
19.7954309
19.7954309
19.7954309
19.7954309
19.7954309
19.79543091
19.79543091
19.79543091
19.79543091
19.79543092
19.79543092
19.79543092
19.79543093
19.79543093
19.79543094
19.79543094
19.79543095
19.79543095
19.79543096
19.79543096
19.79543097
19.79543098
19.79543098
19.79543099
19.795431
19.795431
19.79543101
19.79543102
19.79543102
19.79543103
19.79543104
19.79543104
19.79543105
19.79543106
19.79543107
19.79543107
19.79543108
19.79543108
19.79543109
19.7954311
19.7954311
19.79543111
19.79543111
19.79543112
19.79543112
19.79543112
19.79543112
19.79543113
19.79543113
19.79543113
19.05626369
19.05626369
19.05626369
19.05626369
19.05626369
19.05626369
19.05626369
19.05626369
19.05626369
19.05626369
19.05626369
19.0562637
19.0562637
19.0562637
19.0562637
19.0562637
19.0562637
19.05626371
19.05626371
19.05626371
19.05626371
19.05626372
19.05626372
19.05626372
19.05626372
19.05626373
19.05626373
19.05626373
19.05626374
19.05626374
19.05626374
19.05626374
19.05626375
19.05626375
19.05626375
19.05626376
19.05626376
19.05626376
19.05626376
19.05626377
19.05626377
19.05626377
19.05626377
19.05626378
19.05626378
19.05626378
19.05626378
19.05626378
19.05626379
19.05626379
18.34223277
18.34223277
18.34223277
18.34223277
18.34223277
18.34223277
18.34223277
18.34223277
18.34223277
18.34223277
18.34223277
18.34223277
18.34223277
18.34223277
18.34223277
18.34223277
18.34223278
18.34223278
18.34223278
18.34223278
18.34223278
18.34223278
18.34223278
18.34223278
18.34223278
18.34223279
18.34223279
18.34223279
18.34223279
18.34223279
18.34223279
18.34223279
18.3422328
18.3422328
18.3422328
18.3422328
18.3422328
18.3422328
18.3422328
18.34223281
18.34223281
18.34223281
18.34223281
18.34223281
18.34223281
18.34223281
18.34223282
18.34223282
18.34223282
18.34223282
17.652572
17.652572
17.652572
17.652572
17.652572
17.652572
17.652572
17.652572
17.652572
17.652572
17.652572
17.652572
17.652572
17.652572
17.652572
17.652572
17.652572
17.652572
17.652572
17.65257201
17.65257201
17.65257201
17.65257201
17.65257201
17.65257201
17.65257201
17.65257201
17.65257201
17.65257201
17.65257201
17.65257201
17.65257202
17.65257202
17.65257202
17.65257202
17.65257202
17.65257202
17.65257202
17.65257202
17.65257202
17.65257202
17.65257203
17.65257203
17.65257203
17.65257203
17.65257203
17.65257203
17.65257203
17.65257203
17.65257203
16.98653567
16.98653567
16.98653567
16.98653567
16.98653567
16.98653567
16.98653567
16.98653567
16.98653567
16.98653567
16.98653567
16.98653567
16.98653567
16.98653567
16.98653567
16.98653567
16.98653567
16.98653567
16.98653567
16.98653567
16.98653568
16.98653568
16.98653568
16.98653568
16.98653568
16.98653568
16.98653568
16.98653568
16.98653568
16.98653568
16.98653568
16.98653568
16.98653569
16.98653569
16.98653569
16.98653569
16.98653569
16.98653569
16.98653569
16.98653569
16.98653569
16.9865357
16.9865357
16.9865357
16.9865357
16.9865357
16.9865357
16.9865357
16.9865357
16.9865357
16.34339805
16.34339805
16.34339805
16.34339805
16.34339805
16.34339805
16.34339805
16.34339805
16.34339805
16.34339805
16.34339805
16.34339805
16.34339805
16.34339805
16.34339805
16.34339805
16.34339805
16.34339805
16.34339805
16.34339806
16.34339806
16.34339806
16.34339806
16.34339806
16.34339806
16.34339806
16.34339806
16.34339806
16.34339806
16.34339807
16.34339807
16.34339807
16.34339807
16.34339807
16.34339807
16.34339807
16.34339808
16.34339808
16.34339808
16.34339808
16.34339808
16.34339808
16.34339809
16.34339809
16.34339809
16.34339809
16.34339809
16.3433981
16.3433981
16.3433981
15.72245295
15.72245295
15.72245295
15.72245295
15.72245295
15.72245295
15.72245295
15.72245295
15.72245295
15.72245295
15.72245295
15.72245295
15.72245295
15.72245295
15.72245295
15.72245295
15.72245296
15.72245296
15.72245296
15.72245296
15.72245296
15.72245296
15.72245296
15.72245296
15.72245296
15.72245296
15.72245296
15.72245296
15.72245296
15.72245297
15.72245297
15.72245297
15.72245297
15.72245297
15.72245297
15.72245298
15.72245298
15.72245298
15.72245298
15.72245298
15.72245299
15.72245299
15.72245299
15.722453
15.722453
15.72245301
15.72245301
15.72245302
15.72245303
15.72245303
15.12301329
15.12301329
15.12301329
15.12301329
15.12301329
15.12301329
15.12301329
15.12301329
15.12301329
15.12301329
15.12301329
15.12301329
15.12301329
15.12301329
15.12301329
15.12301329
15.12301329
15.12301329
15.12301329
15.12301329
15.12301329
15.12301329
15.12301329
15.12301329
15.12301329
15.12301329
15.12301329
15.12301329
15.12301329
15.12301328
15.12301328
15.12301328
15.12301328
15.12301328
15.12301328
15.12301328
15.12301327
15.12301327
15.12301327
15.12301327
15.12301326
15.12301326
15.12301326
15.12301325
15.12301325
15.12301325
15.12301324
15.12301323
15.12301323
15.12301322
14.54441066
14.54441066
14.54441066
14.54441066
14.54441066
14.54441066
14.54441066
14.54441066
14.54441066
14.54441066
14.54441066
14.54441066
14.54441066
14.54441066
14.54441066
14.54441066
14.54441066
14.54441066
14.54441066
14.54441066
14.54441066
14.54441066
14.54441066
14.54441066
14.54441066
14.54441065
14.54441065
14.54441065
14.54441065
14.54441065
14.54441065
14.54441065
14.54441065
14.54441065
14.54441065
14.54441064
14.54441064
14.54441064
14.54441064
14.54441064
14.54441064
14.54441064
14.54441063
14.54441063
14.54441063
14.54441063
14.54441063
14.54441063
14.54441063
14.54441062
13.98599486
13.98599486
13.98599486
13.98599486
13.98599486
13.98599486
13.98599486
13.98599486
13.98599486
13.98599486
13.98599486
13.98599486
13.98599486
13.98599486
13.98599486
13.98599486
13.98599486
13.98599486
13.98599486
13.98599486
13.98599486
13.98599486
13.98599486
13.98599486
13.98599486
13.98599486
13.98599486
13.98599486
13.98599485
13.98599485
13.98599485
13.98599485
13.98599485
13.98599485
13.98599485
13.98599485
13.98599485
13.98599485
13.98599485
13.98599485
13.98599485
13.98599485
13.98599485
13.98599485
13.98599485
13.98599485
13.98599485
13.98599485
13.98599484
13.98599484
13.44713349
13.44713349
13.44713349
13.44713349
13.44713349
13.44713349
13.44713349
13.44713349
13.44713349
13.44713349
13.44713349
13.44713349
13.44713349
13.44713349
13.44713349
13.44713349
13.44713349
13.44713349
13.44713349
13.44713349
13.44713349
13.44713349
13.44713349
13.44713349
13.44713349
13.44713349
13.44713349
13.44713349
13.44713349
13.44713349
13.44713349
13.44713349
13.44713349
13.44713349
13.44713349
13.44713349
13.44713349
13.44713349
13.44713349
13.44713349
13.44713349
13.44713349
13.44713349
13.44713349
13.44713349
13.44713349
13.44713349
13.44713349
13.44713349
13.44713349
12.92721157
12.92721157
12.92721157
12.92721157
12.92721157
12.92721157
12.92721157
12.92721157
12.92721157
12.92721157
12.92721157
12.92721157
12.92721157
12.92721157
12.92721157
12.92721157
12.92721157
12.92721157
12.92721157
12.92721157
12.92721157
12.92721157
12.92721157
12.92721157
12.92721157
12.92721157
12.92721157
12.92721157
12.92721157
12.92721157
12.92721157
12.92721157
12.92721157
12.92721157
12.92721157
12.92721157
12.92721158
12.92721158
12.92721158
12.92721158
12.92721158
12.92721158
12.92721158
12.92721158
12.92721158
12.92721158
12.92721158
12.92721158
12.92721158
12.92721158
12.42563107
12.42563107
12.42563107
12.42563107
12.42563107
12.42563107
12.42563107
12.42563107
12.42563107
12.42563107
12.42563107
12.42563107
12.42563107
12.42563107
12.42563107
12.42563107
12.42563108
12.42563108
12.42563108
12.42563108
12.42563108
12.42563108
12.42563108
12.42563108
12.42563108
12.42563108
12.42563108
12.42563108
12.42563108
12.42563108
12.42563108
12.42563108
12.42563109
12.42563109
12.42563109
12.42563109
12.42563109
12.42563109
12.42563109
12.42563109
12.42563109
12.4256311
12.4256311
12.4256311
12.4256311
12.4256311
12.4256311
12.4256311
12.42563111
12.42563111
11.9418106
11.9418106
11.9418106
11.9418106
11.9418106
11.9418106
11.9418106
11.9418106
11.9418106
11.9418106
11.9418106
11.9418106
11.9418106
11.9418106
11.9418106
11.9418106
11.9418106
11.9418106
11.9418106
11.9418106
11.9418106
11.9418106
11.9418106
11.94181061
11.94181061
11.94181061
11.94181061
11.94181061
11.94181061
11.94181061
11.94181061
11.94181061
11.94181061
11.94181061
11.94181062
11.94181062
11.94181062
11.94181062
11.94181062
11.94181062
11.94181063
11.94181063
11.94181063
11.94181063
11.94181064
11.94181064
11.94181065
11.94181065
11.94181066
11.94181066
11.47518495
11.47518495
11.47518495
11.47518495
11.47518495
11.47518495
11.47518495
11.47518495
11.47518495
11.47518495
11.47518495
11.47518495
11.47518495
11.47518495
11.47518495
11.47518495
11.47518495
11.47518495
11.47518495
11.47518495
11.47518495
11.47518495
11.47518494
11.47518494
11.47518494
11.47518494
11.47518494
11.47518494
11.47518494
11.47518494
11.47518494
11.47518494
11.47518494
11.47518494
11.47518494
11.47518493
11.47518493
11.47518493
11.47518493
11.47518493
11.47518492
11.47518492
11.47518492
11.47518492
11.47518491
11.47518491
11.47518491
11.4751849
11.4751849
11.47518489
11.02520474
11.02520474
11.02520474
11.02520474
11.02520474
11.02520474
11.02520474
11.02520474
11.02520474
11.02520474
11.02520474
11.02520474
11.02520474
11.02520474
11.02520474
11.02520474
11.02520474
11.02520474
11.02520474
11.02520474
11.02520474
11.02520474
11.02520474
11.02520474
11.02520474
11.02520474
11.02520473
11.02520473
11.02520473
11.02520473
11.02520473
11.02520473
11.02520473
11.02520473
11.02520473
11.02520473
11.02520473
11.02520473
11.02520473
11.02520472
11.02520472
11.02520472
11.02520472
11.02520472
11.02520472
11.02520472
11.02520472
11.02520471
11.02520471
11.02520471
10.59133603
10.59133603
10.59133603
10.59133603
10.59133603
10.59133603
10.59133603
10.59133603
10.59133603
10.59133603
10.59133603
10.59133603
10.59133603
10.59133603
10.59133603
10.59133603
10.59133603
10.59133603
10.59133603
10.59133603
10.59133603
10.59133603
10.59133603
10.59133603
10.59133603
10.59133603
10.59133603
10.59133603
10.59133603
10.59133603
10.59133603
10.59133603
10.59133603
10.59133603
10.59133603
10.59133603
10.59133603
10.59133603
10.59133603
10.59133603
10.59133603
10.59133603
10.59133603
10.59133603
10.59133603
10.59133603
10.59133603
10.59133603
10.59133602
10.59133602
10.17305995
10.17305995
10.17305995
10.17305995
10.17305995
10.17305995
10.17305995
10.17305995
10.17305995
10.17305995
10.17305995
10.17305995
10.17305995
10.17305995
10.17305995
10.17305995
10.17305995
10.17305995
10.17305995
10.17305995
10.17305995
10.17305995
10.17305995
10.17305995
10.17305995
10.17305995
10.17305995
10.17305995
10.17305995
10.17305995
10.17305995
10.17305995
10.17305995
10.17305995
10.17305995
10.17305995
10.17305995
10.17305995
10.17305995
10.17305995
10.17305995
10.17305995
10.17305995
10.17305995
10.17305995
10.17305996
10.17305996
10.17305996
10.17305996
10.17305996
9.769872319
9.769872319
9.769872319
9.769872319
9.769872319
9.769872319
9.769872319
9.769872319
9.76987232
9.76987232
9.76987232
9.76987232
9.76987232
9.76987232
9.769872321
9.769872321
9.769872321
9.769872321
9.769872322
9.769872322
9.769872322
9.769872323
9.769872323
9.769872324
9.769872324
9.769872325