/*--------------------------------*- C++ -*----------------------------------*\
| =========                 |                                                 |
| \\      /  F ield         | OpenFOAM: The Open Source CFD Toolbox           |
|  \\    /   O peration     | Version:  5.x                                   |
|   \\  /    A nd           | Web:      www.OpenFOAM.org                      |
|    \\/     M anipulation  |                                                 |
\*---------------------------------------------------------------------------*/
FoamFile
{
    version     2.0;
    format      ascii;
    class       volScalarField;
    location    "0.01";
    object      S;
}
// * * * * * * * * * * * * * * * * * * * * * * * * * * * * * * * * * * * * * //

dimensions      [0 0 0 0 0 0 0];

internalField   nonuniform List<scalar> 
7950
(
5141851132
4.670044105e+11
2.616278535e+10
1.939345153e+10
5.899093919e+10
100860273.3
8413964494
46040625.57
4.470758704e+10
27763956.48
25355230.52
666656173.6
113766111.2
1.822660693e+10
228614033.8
26974274.36
2794980820
1.343417375e+10
1014814222
359557.7462
9293778253
36932303.71
9328382.491
1.262274443e+11
46880043.05
1032798.729
1.010986402e+10
4643106.637
1415.73647
493610870.9
204.4662543
1453.332333
170411.6344
5170891.228
151.9431823
4436.272372
31.38806084
6.144647651
29.95796193
2351.712854
6.227606151
30293.19249
4300.843441
11.5693497
321.8959399
1.717517651
0.2764235727
7.441378047e-12
1.098279237e-12
1.923951707
8.066940857e-06
0.2969793806
4.404590753e-07
3.515074501e-05
3.748218842e-05
7.819326924e-08
0.00722734966
9.915640936e-08
2.401632109e-05
5.042954087e-09
1.866261075e-08
2.29586759e-07
5.364231248e-07
5.243560249e-07
5.853675491e-09
3.480944501e-07
6.177250348e-05
1.574723066e-06
4.552195969e-05
3.564343006e-11
3.699469856e-06
4.540639482e-08
2.094936903e-08
12.65770275
1.158966086e-08
1.619376756e-11
0.0002525411134
1.760846047e-09
8.445406581e-11
4.373377494e-05
3.282340481e-11
7.201897164e-13
1.306787568e-12
2.007757696e-07
3.906912497e-14
2.611746377e-12
1.254126216e-14
5.540659026e-15
1.102158802e-13
1.928168574e-12
5.797994854e-15
1.036137415e-10
1.981051187e-11
6.218089429e-11
4.839037011e-13
5.556732222e-13
2.279824814e-13
5.672225599e-18
1.083351007e-14
1.219248346
2.013141163e-14
7.157663861e-09
4.201872552e-16
7.007015158e-12
5.061533748e-16
4.496351871e-17
5.357572884e-10
2.622723583e-14
1.258508165e-15
3.449531893e-16
8.626679308e-15
8.367758566e-16
3.711680094e-15
4.200636886e-17
1.634529074e-17
6.486483492e-15
5.52610175e-12
1.229613902e-16
1.431151139e-11
2.875336932e-19
2.372080828e-15
3.613999995e-15
2.958631933e-16
4.765014115e-07
5.306186978e-18
5.255931177e-16
2.009537064e-09
1.981542375e-18
2.172976925e-15
1.168309398e-13
1.098260247e-15
2.124109088e-20
3.034069725e-18
1.217386168e-11
6.132540353e-21
3.181446057e-20
1.705330585e-21
9.786696699e-22
1.079043362e-20
1.070509764e-20
5.273778301e-22
3.131835979e-17
8.077355629e-19
5.724208913e-15
3.646870822e-20
1.357872712e-17
4.386846157e-18
4.664459306e-19
1.854589404e-19
1.129688462
1.143467354e-17
2.865519842e-13
1.020427474e-17
2.676456857e-14
4.791652833e-22
1.02040258e-17
8.880974428e-13
2.282239741e-16
8.215919232e-22
2.668127851e-18
7.542469038e-17
8.421008319e-22
3.420614981e-20
2.042392489e-22
7.213185994e-23
7.558171819e-20
3.349754857e-17
8.347652734e-20
2.378983298e-17
3.352355099e-23
4.705487378e-20
8.715546317e-22
4.293767239e-18
3.198421681e-08
8.955419025e-22
1.621885084e-19
4.197045322e-17
1.598492386e-17
1.081873428e-16
4.389958968e-21
1.269765887e-17
1.235922859e-17
1.26413017e-15
1.068285718e-12
1.860574947e-22
1.951367536e-24
5.789714839e-25
2.61227021e-25
3.066374534e-24
9.721335522e-24
2.732021211e-25
2.551030061e-21
8.573696752e-21
2.33344353e-16
3.400372661e-24
1.041421036e-18
5.736283213e-19
1.186200146e-19
4.656143987e-15
1.129077306
3.989377025e-20
1.664846697e-17
2.413823482e-17
3.87324991e-15
6.499874547e-23
1.12474089e-16
1.38406678e-14
3.303889022e-17
3.787062844e-24
2.858077706e-19
9.788592628e-19
5.45272444e-25
2.076622144e-24
6.960772862e-25
2.543478208e-25
9.880963514e-22
1.248538966e-21
1.116657225e-22
6.34415563e-23
5.548227335e-26
1.709441437e-23
1.638319582e-22
3.645685687e-18
1.124091123e-08
7.112658353e-24
1.104211356e-22
4.160203051e-22
6.281511134e-19
6.649246565e-18
6.169220772e-24
8.761763587e-19
1.149418854e-16
4.782678719e-14
5.335869827e-13
8.213207581e-23
3.738021923e-26
1.736877536e-25
6.829418122e-27
4.285485087e-26
3.326697016e-26
3.84415022e-24
6.605145367e-23
7.198773317e-19
9.313787837e-17
3.91231066e-25
1.192936962e-19
1.35332541e-19
4.839414538e-24
2.548617925e-19
1.098908748
5.753437659e-21
1.064536709e-21
6.258968838e-18
1.360162646e-15
1.035016937e-22
2.053066753e-16
6.393128492e-15
1.401410723e-17
1.863498729e-24
8.363867976e-20
3.224307252e-20
1.299463055e-26
3.978782189e-26
3.319120144e-25
2.086096617e-24
3.8788167e-22
2.980791907e-25
4.036718328e-25
3.436635818e-25
6.970388079e-26
5.248302147e-25
3.276821863e-23
4.30949295e-17
6.565992758e-09
5.58790733e-25
3.792962892e-25
4.02158058e-25
6.649044204e-22
3.416065495e-20
1.014295983e-24
1.028593718e-19
6.971836917e-17
4.051428383e-14
3.725082977e-13
5.806115044e-23
2.675430492e-25
2.566464039e-27
3.23605767e-27
3.378510802e-26
6.939366395e-25
2.294514694e-21
2.736847044e-20
2.439946154e-18
3.366595317e-17
1.398584484e-25
1.560959225e-20
3.970036032e-20
4.949800014e-20
2.998668753e-15
1.127894967
4.196799672e-21
1.026769624e-24
1.669435483e-19
2.118405645e-16
7.295501518e-24
5.132067154e-17
4.868488189e-15
9.789773473e-18
4.604864987e-25
6.118974136e-20
1.111539993e-20
2.532853626e-27
2.832496152e-26
3.738256626e-25
6.99405883e-24
2.660763301e-22
4.251232519e-27
8.175783792e-27
2.219958519e-25
2.173072535e-26
3.012617583e-25
9.265893498e-24
1.791427712e-17
4.748187e-09
4.264799944e-25
3.674031506e-26
1.117587766e-26
8.553996989e-24
3.679754633e-23
3.126094831e-25
1.529898783e-20
1.127106789e-17
1.603757611e-14
3.178442832e-13
4.994612513e-23
2.28238356e-25
8.452611444e-28
1.682295371e-27
3.204098895e-26
5.51639085e-25
6.182211698e-23
1.886648214e-21
6.933828273e-20
3.455249568e-18
2.201441716e-26
2.080195511e-21
1.213243459e-20
2.147104159e-24
1.410517207e-19
1.130626903
3.548715552e-21
2.111254946e-26
5.19784172e-22
7.449587994e-19
4.46128723e-24
3.608222057e-17
4.303289852e-15
8.036301422e-18
3.25842668e-25
5.277657961e-20
5.860106643e-21
1.701480847e-27
2.336492863e-26
2.511663351e-25
4.834893097e-24
2.187690741e-22
8.461541015e-28
1.462941469e-27
1.48091845e-25
1.463410412e-27
5.973859991e-27
5.487845357e-24
1.061587542e-17
4.051211568e-09
3.803935564e-25
4.33980849e-27
8.085484416e-27
2.762743887e-25
4.921047601e-26
9.496720512e-26
3.093606813e-21
4.760728251e-18
1.012647376e-14
2.943776519e-13
4.639176522e-23
2.104224121e-25
7.342808728e-28
7.583335366e-28
1.482796367e-26
1.611590112e-25
6.075614855e-24
2.084172582e-22
7.557054993e-21
3.426163177e-19
1.859340613e-26
3.082247784e-22
4.276404471e-21
3.132078015e-20
2.113960312e-15
1.166954458
3.226783026e-21
1.183528756e-26
6.398460405e-24
5.482787021e-21
1.828740397e-24
1.487271985e-17
4.096680445e-15
7.223367576e-18
1.805238116e-25
4.950597444e-20
4.790564259e-21
1.948215913e-27
2.080184643e-26
1.70970152e-25
2.423942977e-24
1.985888085e-22
3.146891737e-28
1.820910753e-27
8.39297159e-26
4.907203213e-28
2.86599425e-27
3.084092406e-24
5.999316816e-18
3.805765465e-09
3.560222879e-25
4.825149447e-28
4.969147671e-27
2.3752817e-26
1.823706394e-27
3.67981146e-26
8.013900851e-22
1.709409503e-18
5.922195965e-15
2.854473377e-13
4.496871095e-23
2.033615854e-25
7.010057993e-28
4.437420327e-28
9.694685618e-27
4.815016847e-27
3.028004356e-25
1.931725762e-23
1.725849526e-21
1.950999177e-19
2.54575763e-27
4.388095729e-23
1.427251412e-21
1.150903413e-24
1.727182295e-19
1.188292734
3.036632048e-21
8.340046517e-27
8.756125723e-25
7.827280715e-23
1.137157086e-24
7.697791643e-18
4.045108367e-15
6.891961931e-18
1.10233244e-25
4.83173312e-20
4.571499799e-21
1.848543811e-27
1.925617e-26
1.482814746e-25
1.155709365e-24
1.919307937e-22
1.458187196e-28
3.004240623e-27
4.478233355e-26
5.9597458e-28
1.220222051e-27
1.547616085e-24
3.042524901e-18
3.74519816e-09
3.462791418e-25
3.284035803e-28
1.288820072e-26
6.500874203e-27
7.09543623e-28
4.023667146e-26
2.262457018e-22
4.592326744e-19
3.033938503e-15
2.838193503e-13
4.45657178e-23
2.017781789e-25
6.959865633e-28
3.606293677e-28
9.642379445e-27
1.747869461e-27
1.71653174e-25
1.300302019e-23
1.402074779e-21
1.555854541e-19
2.104032093e-27
7.490985409e-24
5.494260238e-22
4.824323715e-21
1.540187306e-15
1.228338319
2.913870797e-21
2.33665116e-25
1.502264508e-25
7.648061773e-24
5.623517411e-25
3.460275463e-18
4.067468045e-15
6.691763696e-18
7.657277748e-26
4.805833442e-20
4.54454806e-21
1.052915735e-27
1.817574693e-26
1.446982924e-25
6.679191775e-25
1.909629466e-22
8.463771348e-29
1.854013811e-27
2.616213587e-26
2.391125974e-28
1.317686609e-27
9.714642902e-25
1.94321082e-18
3.758184241e-09
3.451086038e-25
3.035784532e-28
1.602518228e-26
2.97889892e-27
1.147161478e-27
1.074462395e-25
6.738307304e-23
1.842878027e-19
1.885910259e-15
2.85468363e-13
4.462116184e-23
2.029340052e-25
7.016746539e-28
3.142266198e-28
9.738683031e-27
3.651277666e-28
5.330988067e-26
1.128436018e-24
3.56250797e-22
1.540507672e-19
1.897710023e-27
3.888162515e-24
2.195977201e-22
2.105883825e-25
1.658116077e-20
1.260404697
2.824211374e-21
2.365925752e-25
2.746866824e-26
5.896417965e-25
4.000629471e-25
2.230843866e-18
4.127153554e-15
6.467243923e-18
4.71625683e-26
4.829131147e-20
4.604371504e-21
5.328794359e-28
1.839988989e-26
1.858317297e-26
8.233413918e-27
1.705728331e-22
7.516198726e-28
8.867585441e-28
1.569519189e-26
1.429721873e-28
1.044109636e-27
2.036987219e-25
4.033724908e-23
1.71508109e-12
1.37446654e-16
2.398634761e-21
1.531383596e-26
2.210483058e-27
8.170967096e-28
1.07853636e-24
5.107277667e-24
2.68855178e-21
2.43950121e-16
2.898931664e-13
4.503399228e-23
2.064839256e-25
7.132700046e-28
2.734615142e-28
9.91524938e-27
2.034813038e-28
5.078896175e-26
5.876646394e-25
3.122809908e-22
1.515207653e-19
6.860914011e-28
2.927853429e-24
9.992757844e-23
4.823170736e-21
1.11383869e-15
1.303600659
2.755551503e-21
2.409680577e-25
5.329101257e-27
6.400592105e-26
4.037986376e-25
2.768732754e-18
4.204542363e-15
5.481267811e-18
5.754739303e-26
4.873369582e-20
4.676164672e-21
2.183750391e-28
1.874549155e-26
2.697660288e-27
1.556960632e-25
1.634646345e-22
2.667063679e-28
4.535726251e-28
9.701037677e-27
9.377154792e-29
2.828756289e-28
7.885562255e-27
1.099271882e-23
8.367482259e-16
1.396311224e-16
2.437300679e-21
5.647261434e-27
1.651828185e-27
1.560481483e-27
8.680645826e-25
4.061564412e-25
8.37792264e-21
3.955345033e-16
2.953180562e-13
4.555499458e-23
2.106769859e-25
7.280272464e-28
2.680431271e-28
1.011618649e-26
1.707018963e-28
5.082087435e-26
1.165429752e-26
2.532033673e-23
1.542208693e-19
1.582279178e-24
2.004451445e-24
4.307391838e-23
2.270006872e-25
6.525516255e-22
1.343125416
2.69961644e-21
2.456071421e-25
1.149462104e-27
3.903885726e-26
5.946529824e-26
4.183727471e-20
4.295276324e-15
4.863017461e-18
1.912842968e-25
4.929486669e-20
4.779812636e-21
8.48434105e-25
1.914817372e-26
4.565910779e-28
1.118481504e-26
1.454788506e-22
4.56677126e-26
9.22082355e-28
6.14709488e-27
7.344998336e-29
9.226082905e-28
1.468495973e-27
9.273103745e-24
8.541615422e-20
9.916552085e-17
6.721800723e-20
2.688109233e-23
1.505171588e-27
4.21823032e-28
8.791923279e-25
1.31498168e-26
1.834369021e-21
8.575747242e-21
3.01828694e-13
8.32455286e-17
1.302882149e-20
2.689062305e-25
2.625650504e-28
1.033617394e-26
1.5661476e-28
5.202074981e-26
1.463160257e-25
1.638213802e-22
1.57561877e-19
1.311410474e-24
1.517239441e-24
2.471621763e-23
5.910336806e-21
8.73579033e-16
1.389595561
2.65327232e-21
2.502123157e-25
3.232625684e-28
1.356771449e-26
1.934508026e-25
1.239244552e-18
4.3928156e-15
4.242957231e-18
3.958921117e-26
4.998422016e-20
4.884836562e-21
2.992344143e-25
1.958738429e-26
2.317550633e-28
2.988335603e-26
1.311830231e-22
4.253636963e-26
9.487737423e-28
4.000209685e-27
5.768924335e-29
9.386346325e-28
3.655963269e-28
9.487306864e-24
7.173578191e-24
7.881069789e-17
9.159811098e-20
4.487788356e-23
1.25168678e-27
1.746800214e-28
8.784219081e-25
9.78357682e-28
5.172971956e-22
1.951737236e-17
3.088867595e-13
8.486221268e-17
1.333444919e-20
2.749941354e-25
2.655203709e-28
1.056698546e-26
1.487863654e-28
5.309083607e-26
4.633649737e-27
1.882504464e-23
1.612752712e-19
4.686313288e-24
1.126805292e-24
1.006361927e-23
2.717490456e-25
1.333118828e-19
1.435284142
2.613855987e-21
2.553382812e-25
1.547071928e-28
4.192818702e-27
2.624512669e-25
1.973378802e-18
4.493876624e-15
3.390002776e-18
5.239030283e-26
5.072329973e-20
4.985576018e-21
5.445323861e-26
2.004106776e-26
3.619288112e-28
7.061226057e-26
1.195820763e-22
4.268417759e-26
8.34302808e-28
2.670146161e-27
5.116457644e-29
9.572212204e-28
4.969698099e-28
9.714860117e-24
2.483578942e-26
6.967894754e-17
1.145559695e-19
8.613565645e-23
1.862157382e-27
9.964371069e-29
8.78651833e-25
3.328482727e-28
2.490433809e-21
5.805111681e-22
3.15968651e-13
4.178868932e-16
4.693010508e-19
5.229667593e-22
5.809559528e-25
1.144302115e-26
1.373467759e-28
5.427171543e-26
6.449913173e-28
1.556838751e-25
1.650560323e-19
8.308374849e-23
8.787887345e-25
5.420211894e-24
3.374549037e-21
5.635015425e-16
1.485330024
2.580925375e-21
2.602914314e-25
1.29708356e-28
1.976872399e-27
1.489136123e-25
8.634822401e-19
4.600278936e-15
3.390532758e-18
4.473924123e-25
5.148538821e-20
5.114890856e-21
2.390908581e-24
2.050984969e-26
1.149934202e-27
6.081706624e-27
1.098654584e-22
2.085965903e-25
1.264365698e-27
1.816377763e-27
5.75118426e-29
9.443144614e-28
3.570678e-28
9.92431717e-24
3.945134752e-26
1.013226845e-17
1.418554396e-19
4.698461709e-22
1.319836444e-26
9.368308508e-29
8.782911638e-25
2.47820303e-27
7.854375411e-22
5.031088024e-25
3.225452054e-13
1.248031344e-15
3.56377419e-18
9.0045721e-21
2.086207416e-23
5.67077877e-26
1.922322757e-28
5.54454329e-26
2.352943665e-28
2.477755581e-27
1.688179395e-19
3.227090983e-22
1.009247351e-24
2.645675437e-24
3.14793777e-25
7.002083715e-22
1.535266831
2.553266733e-21
2.657366293e-25
1.248436719e-28
9.618076765e-28
2.169474586e-25
1.467353324e-18
4.710795891e-15
2.994986067e-18
3.024923538e-26
5.234878202e-20
5.238350095e-21
1.222719287e-24
2.100836071e-26
5.402869514e-28
7.947669553e-28
1.015715881e-22
2.703765484e-25
1.450627406e-27
1.266930938e-27
5.586605868e-29
9.189105486e-28
1.809894362e-28
1.015744816e-23
5.015156937e-26
2.500343546e-18
1.455170384e-19
6.558884816e-22
1.163101301e-26
8.874252826e-29
8.804125475e-25
3.568066599e-27
3.210454685e-22
3.865810186e-25
3.297620924e-13
1.614830007e-15
5.223684355e-18
1.399533411e-20
3.295686913e-23
8.378738589e-26
2.528943274e-28
5.673024183e-26
2.453472439e-28
1.173146447e-27
1.728964437e-19
3.756023444e-22
8.445307815e-25
1.437842045e-24
6.533289966e-22
4.303774692e-16
1.589188538
2.530958036e-21
2.706805252e-25
1.246867094e-28
7.341672284e-28
1.180035787e-25
7.923999778e-19
4.824912426e-15
2.799929316e-18
3.595978994e-26
5.32534148e-20
5.364804181e-21
4.865073271e-25
2.152280268e-26
2.794091646e-28
5.877245318e-28
9.441665294e-23
2.800183703e-25
1.486342993e-27
9.06392062e-28
5.599526779e-29
9.308997682e-28
1.345795036e-28
1.040700301e-23
5.272476347e-26
1.510497668e-18
1.47215438e-19
7.268086385e-22
7.87412808e-27
8.051816711e-29
8.842158516e-25
4.087530531e-27
1.627771147e-22
3.130752854e-25
3.3735366e-13
1.838561704e-15
6.370393842e-18
1.782630108e-20
4.2934459e-23
1.079807082e-25
3.129122074e-28
5.806700476e-26
2.755942499e-28
1.185416408e-27
1.77102967e-19
4.395306332e-22
7.842258751e-25
7.758428186e-25
1.61731258e-25
8.04119104e-20
1.644376176
2.513244656e-21
2.757948467e-25
1.171398938e-28
6.484601857e-28
1.220570108e-25
8.178162967e-19
4.942993906e-15
2.646669768e-18
4.384011661e-26
5.419611982e-20
5.49351407e-21
1.940285276e-25
2.205307143e-26
1.693764052e-28
2.815691369e-26
8.816943751e-23
2.868635451e-25
1.484910261e-27
6.651580715e-28
5.758730533e-29
9.431441168e-28
4.107951047e-27
1.066154688e-23
3.110289948e-25
1.475902546e-18
1.486931567e-19
6.055764938e-22
9.903433769e-28
3.303160542e-28
8.898463166e-25
1.820742627e-24
3.898970212e-21
1.296119306e-16
3.452162652e-13
1.881672115e-15
6.526166071e-18
1.825785236e-20
4.360404378e-23
1.105118011e-25
3.456314791e-28
5.946074038e-26
2.511371446e-26
6.545336907e-23
1.814414105e-19
4.49578954e-22
6.293139312e-25
4.977265131e-25
3.360868124e-22
4.654680164e-16
1.702550702
2.499989563e-21
3.533621409e-25
1.179919867e-28
6.775195252e-28
7.835095705e-26
4.04234823e-23
5.064856305e-15
3.361282245e-18
8.163469861e-25
5.511009177e-20
5.637902726e-21
1.527287488e-24
2.259092628e-26
2.840921405e-28
3.291463172e-27
8.275941824e-23
3.168230114e-25
1.626615574e-27
5.005835063e-28
6.870949868e-29
1.105538579e-27
1.447293795e-27
1.092433668e-23
7.103291739e-26
8.164872125e-19
1.506515935e-19
6.272350805e-22
4.336967094e-27
3.125033594e-27
8.950470616e-25
1.55928844e-26
2.443974688e-21
1.55478652e-20
3.534340837e-13
1.969569785e-15
6.913732882e-18
1.946291477e-20
4.638170029e-23
1.180479848e-25
3.495371151e-28
6.089645357e-26
1.599976458e-27
7.043622793e-25
1.859502029e-19
4.86026283e-22
5.674594813e-25
2.622752447e-25
3.046740099e-25
3.223493019e-22
1.762551003
2.490776513e-21
4.622548583e-25
1.238484273e-28
6.942025061e-28
3.414365924e-27
4.359127903e-25
5.189157787e-15
4.959542247e-18
2.512338095e-24
5.599045019e-20
5.801969352e-21
4.47499989e-24
2.312889346e-26
1.705298614e-28
6.463299584e-28
7.809046691e-23
3.715727011e-25
1.893523497e-27
3.86512072e-28
6.748797511e-29
1.117336095e-27
5.344274888e-28
1.119176996e-23
6.634673433e-26
2.819943045e-19
1.52657076e-19
7.148008654e-22
8.405983051e-27
2.809150621e-27
9.018005174e-25
4.912050719e-27
1.669699854e-21
2.589415943e-24
3.618301542e-13
2.109833033e-15
7.556414837e-18
2.137703663e-20
5.050328775e-23
1.272020492e-25
3.643176795e-28
6.239127672e-26
3.751176617e-28
5.035528008e-24
1.906110869e-19
4.980772417e-22
4.652950498e-25
2.550065119e-25
1.449690647e-21
3.871482297e-16
1.825356665
2.485395467e-21
5.572579593e-25
1.280474716e-28
7.127298488e-28
1.927612125e-27
2.511412372e-25
5.316746808e-15
6.177630005e-18
2.485567053e-24
5.699325265e-20
5.965292756e-21
6.650566662e-24
2.368227285e-26
1.333799216e-28
3.902700337e-28
7.404699735e-23
4.041275889e-25
2.060533852e-27
3.068059779e-28
6.844684184e-29
1.128965529e-27
2.564160303e-28
1.147366417e-23
6.851343608e-26
2.399859819e-19
1.548662718e-19
7.073773862e-22
1.05747654e-27
9.009540874e-28
9.097701056e-25
1.647663489e-25
1.095505908e-21
5.390802045e-17
3.705321433e-13
2.161561545e-15
7.746274357e-18
2.19091595e-20
5.138651906e-23
1.30286012e-25
3.843885471e-28
6.392889204e-26
2.825328996e-27
2.00617066e-23
1.95409131e-19
5.104314238e-22
3.854118803e-25
9.75070061e-26
2.661544977e-25
2.16691092e-22
1.890494075
2.483518872e-21
5.706329326e-25
1.130372457e-28
6.755337941e-28
9.529065066e-26
4.26225196e-19
5.448753406e-15
5.888906632e-18
4.37191873e-26
5.827401663e-20
6.113726303e-21
2.558118496e-24
2.425199201e-26
1.215968068e-28
1.473990578e-26
7.05012512e-23
4.142978709e-25
2.102959022e-27
2.505788539e-28
7.078985961e-29
1.150792834e-27
2.129992694e-27
1.176350368e-23
9.265818897e-26
2.418400786e-19
1.572991404e-19
7.020181935e-22
6.701199817e-28
9.531262821e-28
9.186533108e-25
1.921169473e-26
1.771722769e-22
1.804738642e-17
3.795639183e-13
2.215336617e-15
7.943162592e-18
2.246014554e-20
5.231928707e-23
1.334867763e-25
3.904034492e-28
6.552162631e-26
8.989964007e-28
1.060771611e-23
2.003574192e-19
5.231784238e-22
3.223835652e-25
6.32315629e-26
2.908441714e-23
3.741710526e-16
1.958349005
2.485217691e-21
5.829954724e-25
1.087844769e-28
6.706913484e-28
4.700929046e-26
5.665850818e-20
5.585719408e-15
6.010687876e-18
2.850093707e-25
5.957544942e-20
6.269612126e-21
3.340198866e-24
2.485076848e-26
1.60441698e-28
2.477144117e-27
6.739346934e-23
4.47982945e-25
2.329473815e-27
2.108324966e-28
8.053689041e-29
1.205153708e-27
1.149976875e-27
1.205645171e-23
8.102429445e-26
6.983791657e-20
1.596475459e-19
8.332927822e-22
1.160590777e-26
3.453888927e-27
9.278209262e-25
6.052778305e-27
1.382173326e-22
5.746045644e-21
3.885218629e-13
2.576562218e-15
1.013675609e-17
3.065108459e-20
7.541598971e-23
1.892738084e-25
5.219744392e-28
6.712626345e-26
4.761886365e-28
1.426217187e-25
2.053687282e-19
6.262437511e-22
4.708548397e-25
3.996843147e-26
5.448808957e-25
1.796043643e-19
2.028544327
2.489662112e-21
5.967444692e-25
1.055769427e-28
1.986547607e-27
3.401946228e-24
2.724384269e-18
5.719043456e-15
4.072308199e-18
1.298897086e-25
6.090078816e-20
6.344877879e-21
3.174875653e-25
2.543097189e-26
1.740439634e-28
7.973950613e-26
6.46081567e-23
4.58888374e-25
2.336024195e-27
1.823032093e-28
8.202346496e-29
1.208852953e-27
1.652039447e-26
1.234981987e-23
1.11035998e-25
5.817830573e-20
1.620922197e-19
6.597502862e-22
1.372458759e-27
9.484375605e-28
9.501125936e-25
1.697939763e-23
2.504874902e-20
1.966082764e-16
3.978711568e-13
2.640399062e-15
1.039267992e-17
3.142109212e-20
7.683228137e-23
1.93929975e-25
5.557908314e-28
6.880909086e-26
9.196470071e-27
3.96270799e-23
2.106039308e-19
6.421725958e-22
4.012354465e-25
3.110073526e-26
8.457108741e-23
3.141570395e-16
2.101882872
2.496814116e-21
6.107455421e-25
1.730462487e-28
1.449698765e-26
1.86049045e-23
6.08799842e-18
5.839499413e-15
1.939778679e-18
2.923227746e-25
6.217431255e-20
6.197101924e-21
1.727766106e-26
2.598923954e-26
1.542442887e-27
2.077207445e-25
6.205224943e-23
4.688550176e-25
2.310220584e-27
1.629760842e-28
1.279629994e-28
5.938639486e-28
4.955091372e-26
1.261104411e-23
2.043546621e-25
5.859188605e-20
1.638616408e-19
3.80491583e-22
6.078677921e-28
2.328603284e-26
7.021709796e-24
1.917632556e-21
6.223384575e-19
9.823454185e-16
4.066355504e-13
2.700653239e-15
1.063541909e-17
3.215354191e-20
7.817674452e-23
1.984173704e-25
6.785453465e-28
7.103082787e-26
3.699790891e-25
2.634566775e-22
2.158081229e-19
6.579821724e-22
3.453273994e-25
1.056253189e-24
3.19252348e-21
5.948314785e-16
2.178146571
2.507764119e-21
6.250598198e-25
1.125466196e-27
5.239383316e-27
8.193728439e-24
3.828370731e-18
5.976274869e-15
1.235648405e-18
2.072639884e-25
6.354670607e-20
6.2760733e-21
2.27889921e-27
2.660862312e-26
9.675602219e-27
1.21556769e-25
5.989690352e-23
4.795517486e-25
2.362330093e-27
1.506973025e-28
1.729188445e-28
6.860843476e-28
2.834795572e-26
1.289809858e-23
1.758220321e-25
5.959474117e-20
1.663203789e-19
2.812742612e-22
5.794286505e-28
4.686418453e-27
2.056077531e-24
5.434347046e-22
2.774904521e-19
6.52574748e-16
4.160632613e-13
2.765213251e-15
1.089422609e-17
3.292135752e-20
7.963709729e-23
2.031750273e-25
6.783564793e-28
7.236398992e-26
1.783687794e-25
1.863248094e-22
2.212365916e-19
6.742687184e-22
2.988375659e-25
1.061584156e-25
3.589563798e-22
6.125612316e-16
2.257463538
2.522440376e-21
6.381665665e-25
1.239653546e-27
1.73036041e-27
8.222010877e-25
1.155106671e-18
6.125641453e-15
1.121280718e-18
9.326675903e-26
6.503689336e-20
6.425664163e-21
1.110356584e-27
2.728884895e-26
8.426644931e-27
3.71795998e-26
5.808193708e-23
4.91461464e-25
2.434910873e-27
1.417383583e-28
1.66055817e-28
6.234864516e-28
7.826718846e-27
1.321900163e-23
1.219795732e-25
6.080972044e-20
1.693089156e-19
2.623609463e-22
5.198547282e-28
1.413281913e-27
9.906072629e-25
2.82211567e-23
4.014464361e-20
2.484706918e-16
4.26256906e-13
2.834712143e-15
1.117145713e-17
3.373469547e-20
8.122714647e-23
2.082409711e-25
6.429965691e-28
7.401734352e-26
3.425795259e-26
8.295399839e-23
2.26923236e-19
6.911787343e-22
2.61224354e-25
2.102985113e-26
9.132893526e-23
4.721638156e-16
2.339970624
2.540286773e-21
9.124581317e-25
7.058608935e-28
8.746345184e-28
1.900443513e-25
8.475537555e-21
6.275973618e-15
5.622301854e-18
1.174412492e-23
6.602757494e-20
6.651387571e-21
7.734752016e-24
2.794368323e-26
3.381029598e-27
6.831053438e-27
5.660606707e-23
5.88152856e-25
3.400411077e-27
1.376501315e-28
1.55273016e-28
7.183445097e-28
3.870975916e-27
1.353658433e-23
1.013008035e-25
7.713687377e-21
1.702769346e-19
5.220074837e-22
1.313065135e-26
5.446855378e-27
9.833795554e-25
2.038778629e-25
3.304901181e-20
2.252303179e-19
4.364587771e-13
3.387657355e-15
1.49669161e-17
4.902139844e-20
1.265208651e-22
3.174254821e-25
8.456106513e-28
7.587121692e-26
2.765771712e-27
1.453388456e-24
2.327561122e-19
7.971091018e-22
4.422004968e-25
7.080101493e-27
5.323248573e-25
1.311916604e-19
2.425753868
2.561073784e-21
1.23815037e-24
4.749061666e-28
5.577420927e-28
1.407634369e-26
1.244270645e-22
6.424861518e-15
1.125800525e-17
3.102217161e-23
6.694586575e-20
6.904578645e-21
1.805421371e-23
2.861224271e-26
1.149480945e-27
1.457280307e-27
5.549157867e-23
7.041798044e-25
4.807228603e-27
1.371453992e-28
1.400262365e-28
7.142513033e-28
2.072206942e-27
1.386148376e-23
1.197679189e-25
7.237544614e-22
1.684042157e-19
8.463912114e-22
1.953177825e-26
4.088279911e-27
9.970761185e-25
1.082983364e-26
2.667209351e-20
2.475974743e-22
4.467624234e-13
4.086019652e-15
2.064907104e-17
7.538163764e-20
2.144532285e-22
5.514549998e-25
1.394336154e-27
7.778371093e-26
6.83464751e-28
2.841236217e-26
2.387289759e-19
9.46576646e-22
7.654620509e-25
5.54468244e-27
6.543115913e-27
7.365847208e-20
2.5147588
2.584750305e-21
1.593579333e-24
4.775052292e-28
5.274343628e-28
2.005546828e-27
3.91072896e-24
6.571474798e-15
1.757420509e-17
5.489568938e-23
6.785332037e-20
7.172571725e-21
2.955352735e-23
2.928564712e-26
5.321334002e-28
6.270857464e-28
5.4721902e-23
8.203715666e-25
6.425695849e-27
1.397215251e-28
1.32846155e-28
7.009857873e-28
1.274183706e-27
1.419979032e-23
1.368106868e-25
6.971500772e-23
1.648486542e-19
1.124681958e-21
2.171141808e-26
2.990721105e-27
1.012005645e-24
1.121312942e-26
2.142475056e-20
4.058520562e-25
4.574812426e-13
4.668466807e-15
2.57590523e-17
1.008239122e-19
3.041116351e-22
8.031854473e-25
2.00794009e-27
7.977589069e-26
6.194887946e-28
2.123716527e-27
2.44931272e-19
1.066047073e-21
9.840828922e-25
4.44328926e-27
1.034308492e-27
6.347378038e-20
2.607558665
2.611277367e-21
1.73224604e-24
3.918387801e-28
5.374185421e-28
1.084916447e-27
2.589970629e-25
6.724742322e-15
2.018792401e-17
2.864399305e-23
6.912497318e-20
7.401278654e-21
3.545340151e-23
2.99068018e-26
3.962754583e-28
4.999519538e-28
5.419223918e-23
8.887893935e-25
7.394406489e-27
1.402523904e-28
1.307939936e-28
6.868052648e-28
8.532872005e-28
1.456261611e-23
1.429036204e-25
1.075092115e-23
1.615403717e-19
1.307101598e-21
1.921615365e-26
2.315688949e-27
1.028315439e-24
1.242193887e-26
1.724707512e-20
6.473257024e-26
4.686328881e-13
5.166227741e-15
3.044312204e-17
1.260538184e-19
3.997066399e-22
1.091957978e-24
2.751154524e-27
8.183728558e-26
6.742552836e-28
1.650552171e-27
2.513318337e-19
1.19097726e-21
1.231923659e-24
3.711671529e-27
9.943537075e-28
5.634881033e-20
2.704033646
2.639918477e-21
1.776855507e-24
2.888743044e-28
4.618303682e-27
8.250340614e-24
2.559729716e-18
6.878159455e-15
1.521677766e-17
3.128695684e-25
7.08378145e-20
7.521857148e-21
4.436485529e-24
3.049978867e-26
3.850721192e-28
6.465556703e-26
5.376278389e-23
9.111611877e-25
7.558246379e-27
1.375977365e-28
1.325759883e-28
7.072225403e-28
1.872197054e-26
1.493259737e-23
1.451285597e-25
8.678526405e-23
1.590519224e-19
1.209381282e-21
2.982395915e-27
9.761111258e-28
1.062554249e-24
2.849780034e-23
5.363464519e-20
1.800267491e-16
4.803816029e-13
5.301683252e-15
3.124964514e-17
1.293463535e-19
4.086265108e-22
1.120452528e-24
2.839180076e-27
8.400302391e-26
2.801873673e-27
2.104960944e-23
2.580325135e-19
1.222653537e-21
1.11757398e-24
6.070859806e-27
1.11886391e-22
3.82599034e-16
2.804631009
2.671354446e-21
1.820128017e-24
3.126685777e-28
1.042003754e-26
1.575214475e-23
3.516832204e-18
7.034348882e-15
1.118624613e-17
3.316569324e-25
7.260940917e-20
7.636475591e-21
5.488278694e-25
3.119675014e-26
8.861789783e-28
9.448775773e-26
5.341028165e-23
9.336708006e-25
7.72550646e-27
1.39844766e-28
1.699993209e-28
2.602505342e-27
2.813351428e-26
1.530187873e-23
1.475789898e-25
2.468830927e-22
1.570973107e-19
1.052741061e-21
9.397151143e-28
3.324349258e-27
2.028353898e-24
6.777497291e-22
4.940989714e-19
5.472715854e-16
4.921271165e-13
5.437190641e-15
3.205718104e-17
1.326504054e-19
4.176033006e-22
1.149117042e-24
2.969479328e-27
8.624964247e-26
8.77990735e-26
1.422170146e-22
2.648421896e-19
1.254807524e-21
1.020075818e-24
6.310014908e-27
2.202709863e-23
1.987223481e-19
4.770570584e-14
2.706510331e-21
1.859873388e-24
5.765546125e-28
4.209695697e-27
1.11950885e-25
1.947496007e-19
7.206578218e-15
8.863375602e-18
7.734275641e-26
7.452768825e-20
7.82439567e-21
5.381629584e-25
3.196717785e-26
1.673774793e-27
9.773499312e-27
5.324544996e-23
9.583850278e-25
7.917303531e-27
1.45413146e-28
3.930602202e-28
7.425059876e-27
4.033718527e-27
1.570916706e-23
1.506823691e-25
5.151047834e-23
1.559818935e-19
1.056878205e-21
6.506987432e-28
2.565664145e-27
1.089815447e-24
1.787488667e-23
4.825358125e-20
1.72441721e-16
5.046577574e-13
5.58104758e-15
3.29116021e-17
1.361189913e-19
4.27156634e-22
1.179275596e-24
3.016835875e-27
8.848671353e-26
2.277785031e-26
7.403208977e-23
2.719265514e-19
1.287683209e-21
9.369323978e-25
3.454763925e-27
1.261289782e-23
1.245015464e-19
1.020458655e-18
2.744521326e-21
1.92974031e-24
5.050091469e-28
1.299330705e-27
2.986349584e-25
1.041941897e-19
7.384224788e-15
6.42019143e-18
3.403680155e-24
7.62914055e-20
8.045425959e-21
2.304383419e-24
3.276368688e-26
7.836438483e-28
5.162479644e-27
5.318965734e-23
1.00205738e-24
8.481123724e-27
1.503018953e-28
4.276572049e-28
7.690860458e-27
3.46266847e-27
1.61253856e-23
1.625355181e-25
1.574306787e-24
1.551414736e-19
1.160402783e-21
1.498586147e-26
8.088273934e-27
1.103888082e-24
1.339106453e-25
4.244211582e-20
5.2973731e-19
5.175283106e-13
5.970391775e-15
3.647722352e-17
1.554011593e-19
5.005251542e-22
1.403627283e-24
3.574334012e-27
9.08439095e-26
2.562823012e-27
1.912794176e-24
2.792406444e-19
1.37893287e-21
1.077330913e-24
1.721077961e-27
2.909596548e-26
1.048502586e-19
2.553276386e-19
2.785291687e-21
1.976030355e-24