/*--------------------------------*- C++ -*----------------------------------*\
| =========                 |                                                 |
| \\      /  F ield         | OpenFOAM: The Open Source CFD Toolbox           |
|  \\    /   O peration     | Version:  5.x                                   |
|   \\  /    A nd           | Web:      www.OpenFOAM.org                      |
|    \\/     M anipulation  |                                                 |
\*---------------------------------------------------------------------------*/
FoamFile
{
    version     2.0;
    format      ascii;
    class       volVectorField;
    location    "0.01";
    object      Uair;
}
// * * * * * * * * * * * * * * * * * * * * * * * * * * * * * * * * * * * * * //

dimensions      [0 1 -1 0 0 0 0];

internalField   nonuniform List<vector> 
7950
(
(0.2846985272 -0.001878401295 4.944072312e-09)
(0.2846350835 -0.00449967745 8.921891148e-09)
(0.2847103639 -0.007379137143 1.093978962e-08)
(0.2849175897 -0.01030698016 7.059806985e-09)
(0.28524822 -0.01325932928 4.975606852e-09)
(0.285697878 -0.01623120077 3.967830385e-09)
(0.2862647223 -0.01922354962 3.38683076e-09)
(0.2869484359 -0.02223895774 3.192273369e-09)
(0.2877497127 -0.025280673 3.357299125e-09)
(0.2886700813 -0.028352392 3.32334947e-09)
(0.2897116792 -0.03145804339 3.08255558e-09)
(0.2908771056 -0.03460174976 2.613931841e-09)
(0.2921692514 -0.03778780709 3.010562794e-09)
(0.2935911642 -0.041020692 2.075949978e-09)
(0.2951458768 -0.04430502511 1.596738825e-09)
(0.2968362173 -0.0476455569 1.247596944e-09)
(0.2986645793 -0.05104712478 9.535272813e-10)
(0.3006326377 -0.05451460253 6.607330458e-10)
(0.302741028 -0.05805281685 4.710874706e-10)
(0.3049889324 -0.06166645911 1.840262658e-10)
(0.3073736009 -0.06535993024 1.148002001e-10)
(0.3098897893 -0.06913717257 1.719353005e-10)
(0.312529111 -0.07300144299 3.031147953e-10)
(0.3152792596 -0.07695502293 4.728395725e-10)
(0.3181231114 -0.08099885024 6.556751027e-10)
(0.3210377176 -0.08513208179 8.334188415e-10)
(0.3239931459 -0.08935152406 9.94732194e-10)
(0.3269511981 -0.09365094364 1.129035635e-09)
(0.3298639273 -0.0980201515 1.236612366e-09)
(0.3326719849 -0.1024440763 1.315826961e-09)
(0.3353027681 -0.1069019825 1.366946798e-09)
(0.3376686276 -0.1113650025 1.390229219e-09)
(0.3396645221 -0.115790916 1.385459125e-09)
(0.3411652741 -0.1201280613 1.357997912e-09)
(0.3420232086 -0.1243526052 1.311392688e-09)
(0.3420660363 -0.1283295391 1.249812469e-09)
(0.3411591574 -0.1318806512 1.176778882e-09)
(0.3389331425 -0.1351231962 1.083072744e-09)
(0.3351773049 -0.1376677292 9.800621143e-10)
(0.3295690727 -0.1393999531 8.710822197e-10)
(0.3217353925 -0.1400824473 7.605943408e-10)
(0.311241219 -0.1394172705 6.49994127e-10)
(0.2975747607 -0.1370477924 5.429078021e-10)
(0.2801272308 -0.1325388453 4.40804523e-10)
(0.2581648286 -0.1253565754 3.465668495e-10)
(0.2307897089 -0.1148560828 2.617417174e-10)
(0.1968855579 -0.1002810001 1.869624105e-10)
(0.1550407268 -0.08066113673 1.226551642e-10)
(0.1034293275 -0.05438774791 6.815014323e-11)
(0.03984706298 -0.0196445427 2.146195486e-11)
(0.5758913204 -0.0002520665003 1.060177984e-08)
(0.5762950121 -0.0004968823396 1.415299711e-08)
(0.5768870844 -0.000663231186 1.078485674e-08)
(0.5776689805 -0.0008315840213 1.042408515e-08)
(0.5786512397 -0.001015832123 1.045140632e-08)
(0.5798397849 -0.001212935115 1.589279472e-08)
(0.5812380853 -0.001421707381 1.7980824e-08)
(0.5828484323 -0.001642580622 2.21268149e-08)
(0.5846724962 -0.00187587693 2.687173854e-08)
(0.5867108144 -0.002121566709 2.960219911e-08)
(0.5889628453 -0.002379876555 2.94768243e-08)
(0.5914268782 -0.002651212826 2.967779349e-08)
(0.5940998008 -0.002936022316 3.001888269e-08)
(0.5969767961 -0.00323473335 2.849625769e-08)
(0.6000509456 -0.003547691853 2.697730439e-08)
(0.6033127373 -0.003875133316 2.330526049e-08)
(0.6067494941 -0.00421711928 2.068757492e-08)
(0.6103446775 -0.004573498565 1.785006482e-08)
(0.6140771238 -0.004943853739 1.436238611e-08)
(0.617920135 -0.00532749567 1.118462118e-08)
(0.6218404305 -0.005723540691 8.477342397e-09)
(0.6257969242 -0.006130489632 6.170794111e-09)
(0.6297395146 -0.006546082826 4.199478892e-09)
(0.6336076861 -0.006968018841 2.511737367e-09)
(0.6373287418 -0.007393646185 1.069171555e-09)
(0.6408161147 -0.007819630771 -2.327315813e-10)
(0.6439675346 -0.008242064089 -1.384727197e-09)
(0.6466630688 -0.008656574794 -2.007125335e-09)
(0.6487630732 -0.009058754438 -2.567836586e-09)
(0.6501042502 -0.009443711361 -3.142170941e-09)
(0.6505038982 -0.009805663525 -3.699568303e-09)
(0.6497522566 -0.0101399041 -4.285181348e-09)
(0.6476094696 -0.01043817923 -4.31563943e-09)
(0.6438068625 -0.01069227977 -4.423122483e-09)
(0.6380438761 -0.01089390344 -4.597660162e-09)
(0.6299888799 -0.01103136856 -4.87917743e-09)
(0.6192776819 -0.01108191489 -5.14270141e-09)
(0.6055058688 -0.01104633762 -5.268504691e-09)
(0.5883257993 -0.01086258049 -4.868853483e-09)
(0.5673958854 -0.01055033333 -4.795951844e-09)
(0.5423296794 -0.01009322696 -4.743631501e-09)
(0.5126967827 -0.009478075003 -4.492910748e-09)
(0.4780254434 -0.00869919586 -4.316684931e-09)
(0.4378054969 -0.007756998274 -3.817270698e-09)
(0.3914921297 -0.006660141238 -3.412496625e-09)
(0.3385111152 -0.00542895649 -3.092977179e-09)
(0.2782667203 -0.004094410751 -2.472784412e-09)
(0.2101532924 -0.002695696243 -1.956341037e-09)
(0.133563502 -0.001339099902 -1.126967432e-09)
(0.04788783043 -0.0003481354559 -3.680635512e-10)
(0.7175358103 -0.0005405864618 1.507673672e-08)
(0.7179805479 -0.001375204772 1.745450339e-08)
(0.718473102 -0.002409878005 1.90953359e-08)
(0.7190285867 -0.003481826642 1.608943715e-08)
(0.7196659312 -0.004565354342 1.597926367e-08)
(0.7203940338 -0.005657841894 1.653489406e-08)
(0.7212159969 -0.00675731965 1.739803136e-08)
(0.7221315655 -0.00786138351 1.837501602e-08)
(0.7231378697 -0.008968618341 1.93121532e-08)
(0.7242291007 -0.01007802028 2.0079244e-08)
(0.7253966891 -0.01118821229 2.062215455e-08)
(0.7266292079 -0.01229733749 2.092729604e-08)
(0.7279121046 -0.01340307048 2.102027954e-08)
(0.7292273312 -0.01450252406 2.089006938e-08)
(0.7305528443 -0.01559212761 2.056492184e-08)
(0.7318620158 -0.01666780279 2.00828576e-08)
(0.7331231924 -0.01772485624 1.949339991e-08)
(0.7342989996 -0.01875755939 1.885043188e-08)
(0.7353454262 -0.0197590495 1.807636192e-08)
(0.7362111247 -0.02072181764 1.762308208e-08)
(0.7368366327 -0.02163839211 1.597313663e-08)
(0.7371515443 -0.02249290152 1.50174203e-08)
(0.737082353 -0.02328456442 1.307494732e-08)
(0.7365379039 -0.02399472024 1.16408086e-08)
(0.7354185648 -0.0246117854 1.039247362e-08)
(0.7336130211 -0.02512173977 8.670068167e-09)
(0.7309976244 -0.02550930206 7.242150695e-09)
(0.7274365545 -0.02575863236 6.081605406e-09)
(0.7227853561 -0.02585271192 5.152499744e-09)
(0.7168914918 -0.0257753139 4.492290733e-09)
(0.7095922643 -0.02551148399 3.397954557e-09)
(0.7006874956 -0.0250481421 2.555592171e-09)
(0.6899161951 -0.02437575816 1.888180942e-09)
(0.6770100929 -0.02348911726 1.38394185e-09)
(0.6616945838 -0.02238938562 1.033057343e-09)
(0.6436915279 -0.02108645795 3.162844873e-10)
(0.622723366 -0.0195963286 -2.585876112e-10)
(0.5985179369 -0.01792043882 -7.138736596e-10)
(0.5708896336 -0.01613610089 -1.031281933e-09)
(0.5397166374 -0.014246494 -1.234744994e-09)
(0.5048998454 -0.01228847081 -1.346878808e-09)
(0.4663723965 -0.01030104724 -1.37671382e-09)
(0.4241096074 -0.008325547498 -1.341081491e-09)
(0.378138065 -0.006409747202 -1.247716105e-09)
(0.3285429839 -0.004609328785 -1.111636015e-09)
(0.2754725814 -0.002987876332 -9.434086523e-10)
(0.2191377799 -0.001618059437 -7.498890034e-10)
(0.1598051208 -0.0005909900443 -5.414399866e-10)
(0.0977806692 -1.861869055e-05 -3.247797281e-10)
(0.03338482425 6.905135024e-05 -1.074309951e-10)
(0.8877000873 -0.0005813858626 9.935040633e-10)
(0.8893790167 -0.001317605781 2.214414689e-09)
(0.8907786414 -0.002084890613 3.350642301e-09)
(0.8919783265 -0.002885537394 4.340588696e-09)
(0.8930664758 -0.003718754681 5.224529394e-09)
(0.8940878083 -0.004577346693 6.033880535e-09)
(0.895063615 -0.005457191336 6.790516797e-09)
(0.8960048907 -0.006355960872 7.47530122e-09)
(0.8969139631 -0.007271214114 8.07957237e-09)
(0.8977837033 -0.008200176128 8.605536663e-09)
(0.8985995775 -0.009140193385 9.049416231e-09)
(0.8993405704 -0.01008852748 9.409406187e-09)
(0.8999794863 -0.0110420723 9.681033997e-09)
(0.9004829454 -0.01199759941 9.871757912e-09)
(0.9008110144 -0.01295141894 9.979166899e-09)
(0.9009179562 -0.01389645905 1.000161574e-08)
(0.90075008 -0.01483181119 9.940439533e-09)
(0.9002442294 -0.01574737752 9.794569567e-09)
(0.8993300359 -0.01663779364 9.569521558e-09)
(0.8979280772 -0.01749564402 9.256207562e-09)
(0.8959493254 -0.01831247604 8.857113388e-09)
(0.8932946817 -0.01907881694 8.376052028e-09)
(0.8898544386 -0.0197839308 7.831893117e-09)
(0.8855078495 -0.02041622343 7.24066163e-09)
(0.8801230148 -0.02096421998 6.620881092e-09)
(0.8735568328 -0.02142041771 5.982012872e-09)
(0.8656553539 -0.02177590654 5.343236761e-09)
(0.8562537844 -0.02196583985 4.717059448e-09)
(0.8451917851 -0.02206240678 4.124981179e-09)
(0.8323255536 -0.02200224659 3.567822482e-09)
(0.8175011375 -0.02177842707 3.043115021e-09)
(0.800584784 -0.02138632738 2.555588407e-09)
(0.7814911723 -0.02082000168 2.106902246e-09)
(0.7601376856 -0.02007853404 1.696817859e-09)
(0.7364512692 -0.01916651407 1.323831151e-09)
(0.710374057 -0.01809419405 9.838117301e-10)
(0.6818678056 -0.01687804374 6.835696448e-10)
(0.6509164827 -0.01553834502 4.284604289e-10)
(0.6173667402 -0.01410163096 2.211288649e-10)
(0.5810118665 -0.01259527014 5.996620779e-11)
(0.5416816068 -0.01104752831 -5.837674057e-11)
(0.4992367269 -0.009487994167 -1.383676562e-10)
(0.4535637972 -0.007947019414 -1.85182314e-10)
(0.4045702443 -0.006455179583 -2.043276497e-10)
(0.3521794246 -0.005042816914 -2.013838685e-10)
(0.296325788 -0.003739212956 -1.816673209e-10)
(0.2369504697 -0.002568884915 -1.500284163e-10)
(0.1739979771 -0.001547173265 -1.107289995e-10)
(0.1074150541 -0.0007074473905 -6.728753498e-11)
(0.0371562554 -0.0001700448026 -2.239742536e-11)
(0.9131439411 -0.0001903566441 1.658675653e-09)
(0.9156879233 -0.0005482739921 3.882565625e-09)
(0.9177128858 -0.001049190806 6.302345065e-09)
(0.9193377685 -0.001590934981 8.768518297e-09)
(0.9206988074 -0.00215304779 1.132587555e-08)
(0.9218660522 -0.00273091388 1.409972395e-08)
(0.9228742568 -0.0033205462 1.391256976e-08)
(0.9237376686 -0.003917626658 1.435091045e-08)
(0.924458128 -0.004517970719 1.498058879e-08)
(0.9250310844 -0.005117838815 1.646529849e-08)
(0.9254414627 -0.005713367683 1.583548857e-08)
(0.925665715 -0.006299902936 1.608276987e-08)
(0.9256735378 -0.006873114797 1.646303587e-08)
(0.9254257153 -0.007428995817 1.552653753e-08)
(0.9248759463 -0.007961127376 1.485713928e-08)
(0.9239712152 -0.008464398938 1.38451367e-08)
(0.9226506725 -0.008933479192 1.304475369e-08)
(0.9208454138 -0.009362554198 1.238655055e-08)
(0.9184784166 -0.009745691606 1.08981302e-08)
(0.9154642596 -0.01007713173 9.648245575e-09)
(0.9117089122 -0.0103513231 8.581253294e-09)
(0.9071097002 -0.01056304268 7.654993822e-09)
(0.9015553591 -0.01070775778 6.83912707e-09)
(0.8949263043 -0.01078223071 6.109725156e-09)
(0.8870951795 -0.01078376544 5.450900061e-09)
(0.8779280138 -0.01070616138 4.852549654e-09)
(0.8672859331 -0.01054621611 4.308388479e-09)
(0.8550252361 -0.01035918279 3.813969073e-09)
(0.8410230937 -0.01006486717 3.34955815e-09)
(0.8251695255 -0.009720939861 2.91536047e-09)
(0.8073558378 -0.009329434289 2.511731107e-09)
(0.7874781104 -0.008892301102 2.139499679e-09)
(0.7654394739 -0.008415456832 1.79747757e-09)
(0.7411511744 -0.007904109573 1.483996639e-09)
(0.7145338566 -0.00736217045 1.200264085e-09)
(0.685518855 -0.006792497522 9.462838213e-10)
(0.6540493162 -0.006196513441 7.236285966e-10)
(0.6200810467 -0.005573842572 5.310811493e-10)
(0.5835828733 -0.004924825404 3.691623029e-10)
(0.5445410115 -0.004254230832 2.354877551e-10)
(0.5029647075 -0.003571919137 1.285717898e-10)
(0.4588903106 -0.002891675364 4.706328771e-11)
(0.4123838824 -0.002230268185 -1.224231301e-11)
(0.3635424116 -0.001606901333 -5.119619669e-11)
(0.3124935444 -0.001042653598 -7.337615849e-11)
(0.2593936903 -0.0005598687916 -8.105652352e-11)
(0.2044242143 -0.0001827777738 -7.608925612e-11)
(0.1477852861 5.845906367e-05 -6.146456126e-11)
(0.08968707538 0.0001328704312 -3.944206572e-11)
(0.03033901504 6.233754983e-05 -1.351004862e-11)
(0.9799842287 -0.0002944492204 -6.103064643e-09)
(0.9838875315 -0.0006733693151 -1.543152835e-08)
(0.9869331417 -0.001075162796 -1.74798167e-08)
(0.9892919579 -0.001504212763 -1.389481177e-08)
(0.9911676914 -0.001959174295 -8.771358032e-09)
(0.9926647574 -0.002439527953 -3.953349356e-09)
(0.9938272887 -0.002924825801 -7.97966962e-10)
(0.9946858187 -0.00341661599 1.569767583e-09)
(0.9952494583 -0.003912341053 3.364705317e-09)
(0.9955111962 -0.004407545826 4.724071837e-09)
(0.995453584 -0.004898246178 5.747314118e-09)
(0.9950502052 -0.005376596317 6.504377355e-09)
(0.994271109 -0.005825105353 7.049307846e-09)
(0.9930512713 -0.006273527351 7.401660923e-09)
(0.9913485795 -0.006704903335 7.59621579e-09)
(0.9891103283 -0.007112123187 7.666629603e-09)
(0.9862762508 -0.007490224861 7.63767914e-09)
(0.9827798655 -0.007834541886 7.540207966e-09)
(0.9785492419 -0.008140692564 7.388314266e-09)
(0.9735077153 -0.008404580456 7.221864194e-09)
(0.967574661 -0.008622465312 7.074964698e-09)
(0.9606664182 -0.008791063305 6.972673704e-09)
(0.9526974301 -0.008907685333 6.062545961e-09)
(0.9435815949 -0.008970374761 5.235896102e-09)
(0.9332339004 -0.008978079677 4.558199017e-09)
(0.9215721891 -0.008930730635 3.671216247e-09)
(0.908518938 -0.008829517668 3.709695812e-09)
(0.894003785 -0.008677281988 3.56218611e-09)
(0.8779223806 -0.008476426789 2.815035278e-09)
(0.8601398549 -0.008230802577 2.121675183e-09)
(0.8405333003 -0.007943483151 1.407081593e-09)
(0.8189906641 -0.007617734513 1.273420914e-09)
(0.7954106018 -0.007257005414 1.07874205e-09)
(0.7697023704 -0.006864821091 4.978955951e-10)
(0.7417858074 -0.00644481101 -1.649165961e-10)
(0.7115913847 -0.006000786595 -7.739798178e-10)
(0.6790602466 -0.005536787794 -1.167089547e-09)
(0.6441441129 -0.005057174637 -1.376487285e-09)
(0.6068050639 -0.004566761528 -1.714667528e-09)
(0.5670152999 -0.004070928041 -1.915025229e-09)
(0.5247567203 -0.003575566965 -2.055967218e-09)
(0.4800200391 -0.003086897342 -2.206491484e-09)
(0.4328034705 -0.002611178665 -2.252875191e-09)
(0.3831110457 -0.002154402411 -2.101168143e-09)
(0.3309507555 -0.001722085433 -2.004545947e-09)
(0.276332757 -0.001319017845 -2.01783907e-09)
(0.2192679661 -0.0009478381731 -1.685794169e-09)
(0.1597674475 -0.000606663839 -1.427650131e-09)
(0.0978431887 -0.0003006062131 -8.257689796e-10)
(0.03351160432 -7.901415644e-05 -2.683563504e-10)
(0.9786027377 -1.676195876e-05 6.222972831e-09)
(0.9830332858 -8.922787632e-05 -1.547159124e-09)
(0.9864906549 -0.0002202059288 -5.701937297e-09)
(0.9891639753 -0.0003667036916 -7.529053971e-09)
(0.9912842113 -0.0005189215098 -8.121821846e-09)
(0.9929727488 -0.0006696333932 -6.86561228e-09)
(0.994276439 -0.0008323608501 -5.355785828e-09)
(0.9952274356 -0.00100080991 -3.682196035e-09)
(0.9958338148 -0.001173009503 -2.033892028e-10)
(0.9960882483 -0.001347992403 2.493898064e-09)
(0.995971764 -0.001525350464 4.644567755e-09)
(0.9954550263 -0.001707030762 7.007256345e-09)
(0.9944992796 -0.001905556728 7.417400195e-09)
(0.9930718495 -0.00208417922 8.256145796e-09)
(0.9911206847 -0.002255112992 8.977394703e-09)
(0.9885897216 -0.002420051583 9.861039035e-09)
(0.985417895 -0.002578362853 9.624357928e-09)
(0.9815389253 -0.002729183267 9.50438605e-09)
(0.9768814228 -0.002871543651 9.784114215e-09)
(0.9713691601 -0.003004450775 8.956777291e-09)
(0.9649214168 -0.003126916336 9.542582078e-09)
(0.9574534083 -0.003237931531 9.369354255e-09)
(0.9488767653 -0.003336425579 9.218233071e-09)
(0.9391000575 -0.003421194436 8.802410244e-09)
(0.9280293365 -0.003490821812 8.506737349e-09)
(0.9155686549 -0.003543526453 8.707042009e-09)
(0.9016205429 -0.003576940364 8.310091171e-09)
(0.8860863675 -0.003587845254 7.983138512e-09)
(0.8688665391 -0.003572739307 7.645666456e-09)
(0.8498619465 -0.003529091728 7.111851591e-09)
(0.8289766026 -0.003455718847 7.397916998e-09)
(0.8061199369 -0.00335246192 7.37550689e-09)
(0.781208838 -0.00321993297 6.972119944e-09)
(0.7541694888 -0.003059380658 6.973336886e-09)
(0.7249390975 -0.002872625401 6.451112864e-09)
(0.6934675234 -0.002662003452 7.095882083e-09)
(0.6597188197 -0.002430370014 7.217090307e-09)
(0.6236726904 -0.00218111173 7.440968451e-09)
(0.5853258316 -0.001918184342 7.551639482e-09)
(0.5446931444 -0.00164614064 7.409306318e-09)
(0.5018087534 -0.001370193768 7.550955473e-09)
(0.4567267583 -0.001096254475 7.500284732e-09)
(0.4095216566 -0.0008309980434 7.201352491e-09)
(0.3602883049 -0.0005819395652 6.975828506e-09)
(0.3091413215 -0.0003574613743 6.368648199e-09)
(0.2562137534 -0.0001667772215 5.75116119e-09)
(0.2016548246 -2.050737729e-05 4.910778403e-09)
(0.1456264984 6.710404121e-05 3.758642179e-09)
(0.08829881348 8.120483112e-05 2.495566952e-09)
(0.02984399604 3.40614635e-05 9.309535796e-10)
(0.9977945869 -7.516141378e-05 4.662438892e-09)
(1.002581078 -0.0001626682644 9.253971186e-09)
(1.00630311 -0.0002455840844 4.841197496e-09)
(1.009165402 -0.0003358389522 4.308672695e-09)
(1.011417341 -0.0004341513602 3.931899453e-09)
(1.013188506 -0.0005383705913 8.678827378e-09)
(1.014545607 -0.0006472690864 9.390036892e-09)
(1.015516845 -0.0007598961159 1.382793205e-08)
(1.016109907 -0.000875350173 1.842040664e-08)
(1.016318085 -0.0009927218556 2.156188544e-08)
(1.016123419 -0.001111180439 2.248476468e-08)
(1.015498859 -0.001229904853 2.280074738e-08)
(1.014410535 -0.001348190297 2.416457311e-08)
(1.012818413 -0.001464719639 2.377148208e-08)
(1.010673461 -0.001578612916 2.269668513e-08)
(1.007921325 -0.001688991884 2.118585863e-08)
(1.004502211 -0.001794975358 2.057401084e-08)
(1.000351038 -0.001895655949 1.908041652e-08)
(0.9953976586 -0.001990109453 1.675031544e-08)
(0.9895671281 -0.002077403142 1.47404256e-08)
(0.9827800401 -0.002156590466 1.320843221e-08)
(0.9749529405 -0.002226712426 1.194633196e-08)
(0.9659987961 -0.002286800226 1.090670101e-08)
(0.9558275676 -0.002335877305 1.003934573e-08)
(0.9443468668 -0.002372965678 9.306565172e-09)
(0.9314627089 -0.002397093519 8.707156873e-09)
(0.9170803737 -0.002407337086 8.188946039e-09)
(0.9011053651 -0.002402856596 7.735147505e-09)
(0.8834444909 -0.002382983242 7.346555239e-09)
(0.8640071354 -0.002347315777 7.008228345e-09)
(0.8427066695 -0.002295800288 6.726752142e-09)
(0.8194618819 -0.00222873744 6.472747282e-09)
(0.7941983604 -0.002146791112 6.237898787e-09)
(0.7668497935 -0.002050968886 6.02396763e-09)
(0.7373591242 -0.001942600956 5.827873347e-09)
(0.7056795416 -0.00182330619 5.643649202e-09)
(0.6717752321 -0.001694943741 5.461772784e-09)
(0.635621888 -0.001559566776 5.259299708e-09)
(0.5972069143 -0.001419359059 5.031746315e-09)
(0.556529312 -0.001276553247 4.77070764e-09)
(0.5135992429 -0.001133343506 4.471578175e-09)
(0.4684372567 -0.0009917789428 4.131641794e-09)
(0.4210732401 -0.0008536479504 3.748756731e-09)
(0.3715451301 -0.0007203376683 3.32540238e-09)
(0.319897502 -0.0005927643983 2.862987929e-09)
(0.2661801652 -0.000471288422 2.370076799e-09)
(0.2104469275 -0.0003550805966 1.85403897e-09)
(0.1527547619 -0.0002408269607 1.325686526e-09)
(0.09316382071 -0.0001275947732 7.920639029e-10)
(0.03173860461 -3.575101789e-05 2.616576396e-10)
(0.9933570585 9.312865445e-07 2.018463856e-10)
(0.9983689841 -1.986646463e-05 1.920189225e-10)
(1.002276984 -6.561596535e-05 5.650659557e-10)
(1.005289929 -0.0001185038701 1.107623175e-09)
(1.007666199 -0.0001751350422 3.867704056e-09)
(1.009539567 -0.0002351931647 6.509743677e-09)
(1.010978324 -0.0002983535189 9.2173605e-09)
(1.012014071 -0.000364214888 1.169640219e-08)
(1.012655645 -0.0004323880099 1.401366011e-08)
(1.012896426 -0.0005024827224 1.635734973e-08)
(1.012718113 -0.0005741013804 1.614619415e-08)
(1.012092944 -0.000646786094 1.79304518e-08)
(1.010985422 -0.0007200392086 1.92117201e-08)
(1.009353056 -0.000793311237 1.907810488e-08)
(1.007146909 -0.0008660147228 1.899525824e-08)
(1.004312037 -0.0009375324224 1.763501647e-08)
(1.000787816 -0.001007214559 1.63258018e-08)
(0.9965082318 -0.001074377913 1.58182575e-08)
(0.9914021575 -0.001138309473 1.49555752e-08)
(0.9853936653 -0.001198259301 1.381013564e-08)
(0.9784024124 -0.001253454739 1.27459825e-08)
(0.9703440732 -0.001303108489 1.176965649e-08)
(0.961130883 -0.001346421439 1.088031299e-08)
(0.9506722725 -0.001382587342 1.007681491e-08)
(0.9388756187 -0.001410825393 9.353275946e-09)
(0.9256470997 -0.001430385262 8.700171231e-09)
(0.9108926744 -0.001440565503 8.112403631e-09)
(0.8945191749 -0.001440749627 7.581548149e-09)
(0.8764354968 -0.001430425803 7.102565164e-09)
(0.8565538941 -0.001409216342 6.665944882e-09)
(0.8347913398 -0.001376907369 6.263851716e-09)
(0.8110709354 -0.001333458974 5.889624401e-09)
(0.7853233368 -0.001279019145 5.537566594e-09)
(0.7574881767 -0.001213940309 5.202878932e-09)
(0.727515423 -0.001138788671 4.879404262e-09)
(0.6953666868 -0.001054334408 4.560681266e-09)
(0.6610164141 -0.0009615748794 4.242897322e-09)
(0.6244529519 -0.0008617380295 3.923089523e-09)
(0.5856794552 -0.000756291843 3.600475301e-09)
(0.5447146104 -0.0006469680375 3.274836297e-09)
(0.5015931471 -0.0005357832603 2.947093761e-09)
(0.4563661034 -0.0004250792148 2.617130166e-09)
(0.4091008074 -0.0003175603972 2.28752843e-09)
(0.3598805436 -0.0002163676294 1.959613342e-09)
(0.308803823 -0.0001251001612 1.635169217e-09)
(0.2559832125 -4.783424283e-05 1.317119456e-09)
(0.2015436181 1.055567687e-05 1.006588769e-09)
(0.1456199221 4.333018949e-05 7.058787073e-10)
(0.0883541121 4.346542782e-05 4.162398121e-10)
(0.02989165179 1.727409916e-05 1.364322343e-10)
(0.9989757045 -2.12307872e-05 1.057719705e-08)
(1.004105534 -4.284225282e-05 6.735406996e-09)
(1.008108406 -5.974830819e-05 7.789609751e-09)
(1.011197428 -7.928489978e-05 9.814347155e-09)
(1.013636621 -0.0001022790703 1.245908025e-08)
(1.015562663 -0.0001280972318 1.557201469e-08)
(1.01704536 -0.0001563062484 1.61729727e-08)
(1.018117113 -0.0001866148498 1.741311305e-08)
(1.018787119 -0.0002187502052 1.887200604e-08)
(1.019048804 -0.0002524304066 2.130675091e-08)
(1.018883802 -0.0002873737579 2.161172192e-08)
(1.018264278 -0.0003232756955 2.292147166e-08)
(1.017154551 -0.0003598329957 2.464526577e-08)
(1.015511931 -0.0003967099785 2.533991162e-08)
(1.013287354 -0.0004335538388 2.449115493e-08)
(1.010425802 -0.0004699933065 2.292015492e-08)
(1.006866652 -0.0005056348829 2.181916841e-08)
(1.00254399 -0.0005400656696 2.150199246e-08)
(0.9973869118 -0.0005728686161 2.030640709e-08)
(0.9913198677 -0.0006036092046 1.956605214e-08)
(0.9842630637 -0.0006318523099 1.837584159e-08)
(0.9761329409 -0.0006571696531 1.696567082e-08)
(0.9668427344 -0.0006791423725 1.616511527e-08)
(0.9563031388 -0.0006973770433 1.543560312e-08)
(0.9444230844 -0.0007115113456 1.510295797e-08)
(0.9311105979 -0.000721222392 1.387555284e-08)
(0.9162738 -0.0007262478274 1.298781683e-08)
(0.8998219617 -0.0007263938515 1.203388184e-08)
(0.8816666706 -0.0007215458566 1.125922178e-08)
(0.8617230404 -0.0007116756503 1.126008515e-08)
(0.8399109774 -0.0006968582213 1.007359924e-08)
(0.8161564359 -0.0006772670882 9.469430233e-09)
(0.790392666 -0.0006531868073 8.298089233e-09)
(0.7625614051 -0.000624996848 7.953481132e-09)
(0.7326139581 -0.0005931767891 7.802731305e-09)
(0.7005121565 -0.0005582925761 6.685022081e-09)
(0.6662291363 -0.0005209807504 5.911701112e-09)
(0.6297499112 -0.000481916921 4.720470136e-09)
(0.5910717073 -0.0004417966165 3.657933089e-09)
(0.5502040353 -0.0004012948493 2.832540796e-09)
(0.5071684896 -0.0003610271544 2.224282374e-09)
(0.4619982672 -0.0003214944287 1.534678025e-09)
(0.414737431 -0.0002830367321 1.039240321e-09)
(0.3654399447 -0.0002457632861 6.732354114e-10)
(0.3141685336 -0.0002095027195 4.787818006e-10)
(0.2609934484 -0.0001737978015 2.932237205e-10)
(0.2059912236 -0.0001375886936 -2.520618116e-10)
(0.1492435582 -9.856248432e-05 -2.417749859e-10)
(0.09083670755 -5.525008283e-05 -4.367024505e-10)
(0.03086127758 -1.624179056e-05 -1.112391322e-10)
(0.9949382403 5.260681781e-06 1.577396478e-09)
(1.000147214 2.938494799e-06 3.539836218e-09)
(1.004217065 -9.318619605e-06 5.616930948e-09)
(1.007362241 -2.415543549e-05 7.672467613e-09)
(1.009849878 -4.022055343e-05 9.374010662e-09)
(1.01181822 -5.749434071e-05 1.087170147e-08)
(1.013337822 -7.592588401e-05 1.099808205e-08)
(1.014441402 -9.541215447e-05 1.103151409e-08)
(1.015138218 -0.0001158535945 1.081216515e-08)
(1.015421537 -0.0001371483907 1.049363651e-08)
(1.015272736 -0.0001591777752 9.832303212e-09)
(1.014663677 -0.0001818073397 1.064491693e-08)
(1.013558269 -0.0002048882188 1.089356216e-08)
(1.011913387 -0.0002282453853 1.068015079e-08)
(1.009679499 -0.0002516856395 1.136154022e-08)
(1.00680114 -0.0002749961083 1.154929465e-08)
(1.003217243 -0.000297949427 1.175416315e-08)
(0.9988614727 -0.0003202976141 1.196251561e-08)
(0.9936625385 -0.0003417776909 1.226098326e-08)
(0.9875445659 -0.0003621206119 1.231391228e-08)
(0.9804274885 -0.0003810403439 1.215826196e-08)
(0.9722275681 -0.0003982503054 1.187477684e-08)
(0.9628579382 -0.0004134626752 1.14856655e-08)
(0.9522293163 -0.0004263959904 1.103289591e-08)
(0.9402507473 -0.0004367765489 1.052878267e-08)
(0.9268305209 -0.0004443479079 9.963231869e-09)
(0.9118771415 -0.0004488718429 9.37145898e-09)
(0.8953004201 -0.0004501437182 8.75653549e-09)
(0.8770126347 -0.000447987227 8.14390083e-09)
(0.8569297789 -0.0004422671156 7.517217657e-09)
(0.8349728258 -0.0004328926062 6.870877226e-09)
(0.8110690579 -0.0004198262297 6.207453637e-09)
(0.7851533502 -0.0004030847297 5.530784363e-09)
(0.7571694627 -0.0003827403182 4.845268454e-09)
(0.7270712471 -0.000358935913 4.141404885e-09)
(0.6948237625 -0.0003318818228 3.404156374e-09)
(0.6604042781 -0.0003018679353 2.635128905e-09)
(0.6238031398 -0.0002692627204 1.833303999e-09)
(0.5850244553 -0.0002345238766 9.919408727e-10)
(0.5440865938 -0.0001982127664 1.045096635e-10)
(0.5010224589 -0.0001610162171 -3.81802772e-10)
(0.4558795291 -0.0001237536792 -7.998481734e-10)
(0.4087196432 -8.741688663e-05 -1.119838589e-09)
(0.3596185009 -5.320358274e-05 -1.359569047e-09)
(0.3086648704 -2.253539745e-05 -1.639547687e-09)
(0.2559594674 2.931263996e-06 -1.527537288e-09)
(0.201613479 2.113273433e-05 -1.571991368e-09)
(0.1457466895 2.9090959e-05 -1.131597538e-09)
(0.08848544735 2.379980683e-05 -9.501012688e-10)
(0.02996012601 8.751670916e-06 -2.708518147e-10)
(0.9961414752 -9.930112493e-06 2.087643339e-09)
(1.001373746 -1.903697279e-05 4.92644645e-09)
(1.005463174 -2.449180202e-05 5.798707127e-09)
(1.008624848 -2.959444123e-05 5.185024878e-09)
(1.011126926 -3.447108478e-05 3.352451291e-09)
(1.013108197 -3.84430639e-05 1.937946491e-09)
(1.014639542 -4.083952724e-05 3.575270055e-10)
(1.015753914 -4.129325591e-05 -1.226180099e-09)
(1.016460731 -3.991802711e-05 -1.149431221e-09)
(1.016753328 -3.710062919e-05 -7.649982254e-10)
(1.016613109 -3.330461304e-05 1.594192381e-09)
(1.016011952 -2.898238585e-05 1.785390467e-09)
(1.014913743 -2.454814039e-05 2.262343421e-09)
(1.013275334 -2.030790294e-05 2.713558966e-09)
(1.011047193 -1.631332134e-05 3.76569951e-09)
(1.008173898 -1.262556588e-05 4.550929699e-09)
(1.004594456 -9.470645048e-06 5.589063824e-09)
(1.000242653 -7.033658846e-06 5.271777064e-09)
(0.9950473723 -5.454816141e-06 5.831196945e-09)
(0.988932971 -4.818707651e-06 6.213652046e-09)
(0.9818196971 -5.174206342e-06 6.429032236e-09)
(0.9736241897 -6.535665308e-06 6.519373613e-09)
(0.9642600623 -8.884981111e-06 6.505680251e-09)
(0.9536385775 -1.216527997e-05 6.403546086e-09)
(0.9416694381 -1.628564846e-05 6.226540763e-09)
(0.9282616678 -2.112544707e-05 5.986988194e-09)
(0.9133245901 -2.653662792e-05 5.696497093e-09)
(0.8967689059 -3.234078269e-05 5.365346557e-09)
(0.8785078424 -3.833064698e-05 5.002469029e-09)
(0.8584583565 -4.428159997e-05 4.615223784e-09)
(0.8365423872 -4.995373084e-05 4.209883e-09)
(0.8126880985 -5.509595608e-05 3.792521864e-09)
(0.786831112 -5.943270115e-05 3.368818355e-09)
(0.7589156944 -6.269297061e-05 2.944278226e-09)
(0.7288958611 -6.483742722e-05 2.524010765e-09)
(0.696736299 -6.606705714e-05 2.113467602e-09)
(0.6624131584 -6.657651103e-05 1.719052822e-09)
(0.6259146978 -6.653091555e-05 1.347810765e-09)
(0.5872416906 -6.60838661e-05 1.00734033e-09)
(0.5464076274 -6.53602678e-05 7.055867659e-10)
(0.5034386399 -6.444224269e-05 4.520344626e-10)
(0.458373188 -6.333916115e-05 2.463468771e-10)
(0.4112614891 -6.196497745e-05 9.044112345e-11)
(0.3621647195 -6.011292107e-05 -2.097768066e-11)
(0.3111540042 -5.742879902e-05 -9.197908676e-11)
(0.2583092662 -5.33987417e-05 -1.251135226e-10)
(0.203717958 -4.721955532e-05 -1.276294432e-10)
(0.1474737821 -3.747612446e-05 -1.069174471e-10)
(0.08967572849 -2.298410511e-05 -6.957493478e-11)
(0.03042715679 -7.225237721e-06 -2.412603425e-11)
(0.9932858964 -9.781980914e-07 -4.590828165e-10)
(0.9985170728 -5.993721708e-06 -1.091840868e-09)
(1.002589707 -1.516087343e-05 -1.929483461e-09)
(1.005718482 -2.450347882e-05 -3.054588749e-09)
(1.008170572 -3.318814656e-05 -4.013226019e-09)
(1.010083107 -4.104336919e-05 -6.11439023e-09)
(1.011524714 -4.791053954e-05 -4.678844376e-09)
(1.012543935 -5.369213971e-05 -4.517991369e-09)
(1.013163633 -5.839701316e-05 -4.304245722e-09)
(1.013382887 -6.211129107e-05 -4.222395811e-09)
(1.01318493 -6.497354128e-05 -2.490849457e-09)
(1.012541385 -6.714869263e-05 -2.500815644e-09)
(1.011414547 -6.87845073e-05 -2.405145939e-09)
(1.009758489 -6.994851831e-05 -2.141357845e-09)
(1.007520204 -7.081688272e-05 -1.866693274e-09)
(1.004645715 -7.15729656e-05 -4.622163475e-10)
(1.001074356 -7.235504511e-05 8.609568588e-10)
(0.99673921 -7.322585672e-05 8.790098995e-10)
(0.991568036 -7.422761339e-05 1.298893519e-09)
(0.9854839234 -7.539975964e-05 1.654267877e-09)
(0.9784058145 -7.675961403e-05 1.980895475e-09)