/*--------------------------------*- C++ -*----------------------------------*\
| =========                 |                                                 |
| \\      /  F ield         | OpenFOAM: The Open Source CFD Toolbox           |
|  \\    /   O peration     | Version:  5.x                                   |
|   \\  /    A nd           | Web:      www.OpenFOAM.org                      |
|    \\/     M anipulation  |                                                 |
\*---------------------------------------------------------------------------*/
FoamFile
{
    version     2.0;
    format      ascii;
    class       volScalarField;
    location    "0.01";
    object      vpstar;
}
// * * * * * * * * * * * * * * * * * * * * * * * * * * * * * * * * * * * * * //

dimensions      [0 3 0 0 0 0 0];

internalField   nonuniform List<scalar> 
7950
(
1.506186116e-29
8.668146275e-30
1.214438052e-29
1.255004851e-29
1.086515253e-29
2.626361856e-29
1.363789195e-29
2.928649105e-29
1.076372002e-29
3.105261611e-29
3.101393907e-29
1.797510015e-29
2.312539885e-29
1.093425175e-29
1.971275742e-29
2.72891063e-29
1.288735922e-29
1.011785409e-29
1.388650047e-29
5.692969439e-29
9.456926719e-30
2.067350671e-29
2.522311452e-29
5.929619775e-30
1.700676398e-29
3.326619211e-29
6.782231466e-30
2.141866951e-29
1.88671577e-28
8.313727717e-30
4.075346765e-28
1.45501703e-28
2.923882008e-29
1.250669928e-29
3.272176823e-28
6.244822851e-29
7.990055566e-28
4.784607941e-27
6.355122682e-28
4.603854342e-29
2.997654502e-27
1.41435683e-29
2.217512136e-29
7.300809319e-28
4.543723429e-29
4.307287326e-26
-2.854220224e-27
-4.455323576e-29
-3.414334347e-29
8.7335746e-27
-1.827562235e-28
-1.081625237e-26
-1.81882913e-28
-1.814774247e-28
-1.80415503e-28
-1.786228595e-28
-2.580725708e-28
-1.751330039e-28
-1.732788618e-28
-1.706417579e-28
-1.680406804e-28
-1.652160368e-28
-1.621764672e-28
-1.589282307e-28
-1.554810218e-28
-1.518608517e-28
-1.486605552e-28
-1.441318989e-28
-1.404430771e-28
-1.358121127e-28
-1.31516429e-28
-1.270617787e-28
-1.2255818e-28
7.039930968e-28
-1.133761241e-28
-1.087303165e-28
-1.05779418e-28
-9.941173083e-29
-9.477141825e-29
-9.042186376e-29
-8.56081061e-29
-8.11155145e-29
-7.67016097e-29
-7.238094108e-29
-6.816345182e-29
-6.406385704e-29
-6.009209749e-29
-5.625800441e-29
-5.257029686e-29
-4.903654023e-29
-4.566312059e-29
-4.245523691e-29
-3.941691019e-29
-3.655101674e-29
-3.38593366e-29
-3.134262962e-29
-2.90007312e-29
-2.683267544e-29
-2.483684551e-29
2.555807978e-25
-6.4434388e-29
-6.437857795e-29
-6.425587727e-29
-6.40699462e-29
-6.382185353e-29
-6.351254647e-29
-6.3143058e-29
-6.271455213e-29
-6.222836302e-29
-6.168597743e-29
-6.108904491e-29
-6.043937216e-29
-5.97389179e-29
-5.898978659e-29
-5.819422125e-29
-5.73545954e-29
-5.647340441e-29
-5.555325598e-29
-5.459686046e-29
-5.360701984e-29
-5.258661735e-29
-5.153860537e-29
-5.046599382e-29
-4.937337039e-29
-4.825922519e-29
-4.713126357e-29
-4.599107362e-29
-4.484174589e-29
-4.368638809e-29
-4.252805201e-29
-4.136975096e-29
-4.021444141e-29
-3.906501099e-29
-3.792426701e-29
-3.679492537e-29
-3.567960054e-29
-3.458079567e-29
-3.350089388e-29
-3.24421502e-29
-3.14066844e-29
-3.039647456e-29
-2.941335149e-29
-2.845899385e-29
-2.753492386e-29
-2.664250339e-29
-2.578293033e-29
-2.495723468e-29
-2.416627422e-29
-2.341072899e-29
9.913296752e-25
-3.834040467e-29
-3.832158947e-29
-3.828024475e-29
-3.821755193e-29
-3.81338494e-29
-3.802941406e-29
-3.79045408e-29
-3.775956167e-29
-3.759485193e-29
-3.741083187e-29
-3.720796696e-29
-3.698676713e-29
-3.674778558e-29
-3.649161728e-29
-3.621889716e-29
-3.59302982e-29
-3.562652927e-29
-3.530833288e-29
-3.497648278e-29
-3.463178147e-29
-3.427505757e-29
-3.390716314e-29
-3.352897086e-29
-3.314144033e-29
-3.274526982e-29
-3.234158391e-29
-3.193123999e-29
-3.151517054e-29
-3.109431108e-29
-3.066959718e-29
-3.024196153e-29
-2.981233095e-29
-2.938162353e-29
-2.895074576e-29
-2.852058976e-29
-2.809203053e-29
-2.766592333e-29
-2.724310109e-29
-2.682437194e-29
-2.64105168e-29
-2.600228712e-29
-2.560040265e-29
-2.520554935e-29
-2.481837742e-29
-2.443949938e-29
-2.406948831e-29
-2.370887623e-29
-2.335815256e-29
-2.301776283e-29
1.003498476e-24
-2.963116055e-29
-2.962345416e-29
-2.960651702e-29
-2.958082696e-29
-2.954651362e-29
-2.950367856e-29
-2.945242791e-29
-2.939288025e-29
-2.932516928e-29
-2.924944461e-29
-2.916587203e-29
-2.907463334e-29
-2.897592604e-29
-2.886996292e-29
-2.875697152e-29
-2.863719355e-29
-2.851088428e-29
-2.837831184e-29
-2.823975646e-29
-2.80955098e-29
-2.794587407e-29
-2.779116123e-29
-2.763169217e-29
-2.746781593e-29
-2.729980821e-29
-2.712807164e-29
-2.695293369e-29
-2.677474632e-29
-2.659386487e-29
-2.641064717e-29
-2.622545255e-29
-2.603864087e-29
-2.585057159e-29
-2.566160282e-29
-2.547209035e-29
-2.528238676e-29
-2.509284047e-29
-2.490379488e-29
-2.471558743e-29
-2.452854883e-29
-2.434300216e-29
-2.415926209e-29
-2.397763413e-29
-2.37984139e-29
-2.362188643e-29
-2.34483255e-29
-2.327799309e-29
-2.311113881e-29
-2.294799942e-29
2.014623963e-24
-2.614432755e-29
-2.614084153e-29
-2.613317914e-29
-2.612155494e-29
-2.610602522e-29
-2.608663278e-29
-2.606342178e-29
-2.603644127e-29
-2.600574646e-29
-2.597139909e-29
-2.593346761e-29
-2.589202714e-29
-2.584715936e-29
-2.579895238e-29
-2.574750056e-29
-2.569290431e-29
-2.563526985e-29
-2.557470896e-29
-2.551133872e-29
-2.544528125e-29
-2.53766634e-29
-2.530561645e-29
-2.523227581e-29
-2.515679143e-29
-2.507927369e-29
-2.499990067e-29
-2.491881017e-29
-2.483615319e-29
-2.475208277e-29
-2.466675369e-29
-2.458032205e-29
-2.449294492e-29
-2.440477999e-29
-2.431598519e-29
-2.422671832e-29
-2.41371367e-29
-2.40473968e-29
-2.395765389e-29
-2.38680617e-29
-2.377877206e-29
-2.36899346e-29
-2.360169637e-29
-2.351420159e-29
-2.342759133e-29
-2.334200318e-29
-2.325757104e-29
-2.317442481e-29
-2.309269019e-29
-2.301248841e-29
1.03903326e-24
-2.465900666e-29
-2.465734769e-29
-2.465370099e-29
-2.464816826e-29
-2.464077566e-29
-2.463154276e-29
-2.462048952e-29
-2.460763811e-29
-2.459301339e-29
-2.457664319e-29
-2.455855836e-29
-2.453879275e-29
-2.451738323e-29
-2.449436956e-29
-2.44697944e-29
-2.444370315e-29
-2.441614391e-29
-2.438716735e-29
-2.435682663e-29
-2.432517724e-29
-2.429227693e-29
-2.425818555e-29
-2.422296493e-29
-2.418668624e-29
-2.414939242e-29
-2.411117286e-29
-2.407208845e-29
-2.403220885e-29
-2.39916048e-29
-2.395034805e-29
-2.390851113e-29
-2.386616725e-29
-2.382339012e-29
-2.378025377e-29
-2.373683246e-29
-2.369320044e-29
-2.364943186e-29
-2.36056006e-29
-2.356178008e-29
-2.351804316e-29
-2.347446199e-29
-2.343110782e-29
-2.33880509e-29
-2.334536033e-29
-2.330310393e-29
-2.326134811e-29
-2.322015774e-29
-2.317959606e-29
-2.313972452e-29
9.903991671e-25
-2.404780428e-29
-2.404699402e-29
-2.404521287e-29
-2.404251039e-29
-2.40388992e-29
-2.403438864e-29
-2.402898818e-29
-2.402270832e-29
-2.401556086e-29
-2.400755895e-29
-2.399871722e-29
-2.398905168e-29
-2.397857982e-29
-2.396732048e-29
-2.395529389e-29
-2.39425216e-29
-2.392902644e-29
-2.391483251e-29
-2.389996507e-29
-2.388445054e-29
-2.386831642e-29
-2.385159125e-29
-2.383430453e-29
-2.381649299e-29
-2.379816902e-29
-2.377938355e-29
-2.376016307e-29
-2.374054102e-29
-2.37205514e-29
-2.370022874e-29
-2.367960804e-29
-2.365872464e-29
-2.363761418e-29
-2.361631257e-29
-2.359485583e-29
-2.357328011e-29
-2.355162155e-29
-2.352991624e-29
-2.350820015e-29
-2.348650904e-29
-2.34648784e-29
-2.344334342e-29
-2.342193884e-29
-2.340069897e-29
-2.337965757e-29
-2.33588478e-29
-2.333830218e-29
-2.33180525e-29
-2.32981298e-29
5.256407162e-25
-2.384582513e-29
-2.384542408e-29
-2.384454248e-29
-2.384320482e-29
-2.38414173e-29
-2.383918448e-29
-2.383651099e-29
-2.383340194e-29
-2.382986305e-29
-2.382590075e-29
-2.382152213e-29
-2.3816735e-29
-2.381154786e-29
-2.38059699e-29
-2.380001095e-29
-2.379368153e-29
-2.378699277e-29
-2.377995639e-29
-2.377258474e-29
-2.37648907e-29
-2.375688771e-29
-2.37485897e-29
-2.374001109e-29
-2.373117266e-29
-2.372207205e-29
-2.371274261e-29
-2.370319453e-29
-2.36934442e-29
-2.368350831e-29
-2.367340383e-29
-2.366314796e-29
-2.365275809e-29
-2.364225179e-29
-2.363164674e-29
-2.362096074e-29
-2.361021164e-29
-2.359941732e-29
-2.358859566e-29
-2.357776449e-29
-2.356694156e-29
-2.355614453e-29
-2.354539091e-29
-2.353469802e-29
-2.3524083e-29
-2.351356273e-29
-2.350315382e-29
-2.34928726e-29
-2.348273504e-29
-2.347275677e-29
3.870969153e-25
-2.384275113e-29
-2.384255127e-29
-2.384211193e-29
-2.384144531e-29
-2.384055448e-29
-2.383944169e-29
-2.383810925e-29
-2.383655967e-29
-2.383479577e-29
-2.383282074e-29
-2.383063807e-29
-2.382825161e-29
-2.382566558e-29
-2.382288449e-29
-2.381991323e-29
-2.381675697e-29
-2.381342122e-29
-2.380991178e-29
-2.380623475e-29
-2.38023965e-29
-2.379840368e-29
-2.379426319e-29
-2.378998217e-29
-2.378557378e-29
-2.378102821e-29
-2.377637063e-29
-2.377160322e-29
-2.37667341e-29
-2.376177157e-29
-2.375672403e-29
-2.375160003e-29
-2.374640821e-29
-2.374115731e-29
-2.373585613e-29
-2.373051351e-29
-2.372513836e-29
-2.371973958e-29
-2.371432608e-29
-2.370890677e-29
-2.370349051e-29
-2.369808611e-29
-2.369270233e-29
-2.368734784e-29
-2.368203123e-29
-2.367676095e-29
-2.367154533e-29
-2.366639258e-29
-2.366131071e-29
-2.365630759e-29
2.364563231e-25
-2.393854745e-29
-2.39384475e-29
-2.393822779e-29
-2.393789442e-29
-2.393744892e-29
-2.393689242e-29
-2.393622605e-29
-2.393545107e-29
-2.393456889e-29
-2.393358108e-29
-2.39324894e-29
-2.393129575e-29
-2.393000223e-29
-2.39286111e-29
-2.392712477e-29
-2.392554584e-29
-2.392387703e-29
-2.392212125e-29
-2.392028151e-29
-2.391836101e-29
-2.391636306e-29
-2.391429108e-29
-2.391214863e-29
-2.390994525e-29
-2.390766716e-29
-2.390533579e-29
-2.390294926e-29
-2.390051162e-29
-2.389802703e-29
-2.389549966e-29
-2.38929338e-29
-2.389033375e-29
-2.388770388e-29
-2.388504858e-29
-2.388237229e-29
-2.387967944e-29
-2.387697449e-29
-2.38742619e-29
-2.387154613e-29
-2.386883161e-29
-2.386612275e-29
-2.386342395e-29
-2.386073956e-29
-2.385807386e-29
-2.385543111e-29
-2.385281549e-29
-2.385023111e-29
-2.384768201e-29
-2.384517213e-29
1.698521985e-25
-2.408437176e-29
-2.408432169e-29
-2.408421162e-29
-2.40840446e-29
-2.408382142e-29
-2.408354261e-29
-2.408320877e-29
-2.408282051e-29
-2.408237853e-29
-2.408188363e-29
-2.408133668e-29
-2.408073863e-29
-2.408009053e-29
-2.407939351e-29
-2.407864877e-29
-2.407785762e-29
-2.407702141e-29
-2.40761416e-29
-2.407521969e-29
-2.407425729e-29
-2.407325603e-29
-2.407221765e-29
-2.407114392e-29
-2.407003669e-29
-2.406889782e-29
-2.406772928e-29
-2.406653305e-29
-2.406531115e-29
-2.406406566e-29
-2.406279867e-29
-2.406151233e-29
-2.40602088e-29
-2.405889025e-29
-2.40575589e-29
-2.405621695e-29
-2.405486663e-29
-2.405351018e-29
-2.405214984e-29
-2.405078782e-29
-2.404942636e-29
-2.404806768e-29
-2.404671396e-29
-2.40453674e-29
-2.404403015e-29
-2.404270433e-29
-2.404139206e-29
-2.404009539e-29
-2.403881634e-29
-2.403755691e-29
1.156660312e-25
-2.425605675e-29
-2.425603164e-29
-2.425597645e-29
-2.42558927e-29
-2.425578079e-29
-2.425564099e-29
-2.425547358e-29
-2.425527889e-29
-2.425505726e-29
-2.425480909e-29
-2.425453482e-29
-2.425423492e-29
-2.425390992e-29
-2.425356038e-29
-2.425318691e-29
-2.425279016e-29
-2.425237081e-29
-2.425192959e-29
-2.425146725e-29
-2.425098459e-29
-2.425048244e-29
-2.424996166e-29
-2.424942315e-29
-2.424886782e-29
-2.424829661e-29
-2.424771051e-29
-2.424711051e-29
-2.424649763e-29
-2.424587289e-29
-2.424523737e-29
-2.424459211e-29
-2.424393822e-29
-2.424327679e-29
-2.424260891e-29
-2.42419357e-29
-2.424125827e-29
-2.424057776e-29
-2.423989527e-29
-2.423921192e-29
-2.423852884e-29
-2.423784713e-29
-2.423716789e-29
-2.423649223e-29
-2.423582122e-29
-2.423515593e-29
-2.423449741e-29
-2.423384671e-29
-2.423320484e-29
-2.423257279e-29
8.556707235e-26
-2.44415663e-29
-2.444155371e-29
-2.444152602e-29
-2.4441484e-29
-2.444142786e-29
-2.444135772e-29
-2.444127374e-29
-2.444117607e-29
-2.444106488e-29
-2.444094038e-29
-2.444080278e-29
-2.444065233e-29
-2.444048928e-29
-2.444031392e-29
-2.444012655e-29
-2.44399275e-29
-2.443971711e-29
-2.443949575e-29
-2.443926379e-29
-2.443902164e-29
-2.44387697e-29
-2.443850842e-29
-2.443823823e-29
-2.44379596e-29
-2.443767301e-29
-2.443737894e-29
-2.44370779e-29
-2.443677038e-29
-2.443645692e-29
-2.443613804e-29
-2.443581427e-29
-2.443548617e-29
-2.443515427e-29
-2.443481914e-29
-2.443448133e-29
-2.44341414e-29
-2.443379992e-29
-2.443345744e-29
-2.443311452e-29
-2.443277174e-29
-2.443242963e-29
-2.443208877e-29
-2.443174969e-29
-2.443141295e-29
-2.443107907e-29
-2.443074858e-29
-2.443042201e-29
-2.443009987e-29
-2.442978266e-29
6.27946535e-26
-2.463488956e-29
-2.463488324e-29
-2.463486935e-29
-2.463484826e-29
-2.463482009e-29
-2.46347849e-29
-2.463474275e-29
-2.463469374e-29
-2.463463795e-29
-2.463457547e-29
-2.463450643e-29
-2.463443093e-29
-2.463434911e-29
-2.463426111e-29
-2.463416709e-29
-2.463406721e-29
-2.463396163e-29
-2.463385055e-29
-2.463373415e-29
-2.463361263e-29
-2.463348621e-29
-2.463335509e-29
-2.463321951e-29
-2.463307969e-29
-2.463293587e-29
-2.463278829e-29
-2.463263722e-29
-2.46324829e-29
-2.463232559e-29
-2.463216556e-29
-2.463200308e-29
-2.463183842e-29
-2.463167186e-29
-2.463150368e-29
-2.463133415e-29
-2.463116355e-29
-2.463099217e-29
-2.463082029e-29
-2.46306482e-29
-2.463047616e-29
-2.463030447e-29
-2.46301334e-29
-2.462996322e-29
-2.462979421e-29
-2.462962664e-29
-2.462946077e-29
-2.462929687e-29
-2.462913519e-29
-2.462897598e-29
4.814536433e-26
-2.483302388e-29
-2.483302071e-29
-2.483301374e-29
-2.483300316e-29
-2.483298902e-29
-2.483297135e-29
-2.483295021e-29
-2.483292561e-29
-2.483289761e-29
-2.483286625e-29
-2.48328316e-29
-2.483279371e-29
-2.483275265e-29
-2.483270849e-29
-2.48326613e-29
-2.483261117e-29
-2.483255819e-29
-2.483250244e-29
-2.483244402e-29
-2.483238304e-29
-2.483231959e-29
-2.483225378e-29
-2.483218574e-29
-2.483211556e-29
-2.483204339e-29
-2.483196932e-29
-2.48318935e-29
-2.483181605e-29
-2.48317371e-29
-2.483165678e-29
-2.483157524e-29
-2.48314926e-29
-2.4831409e-29
-2.483132459e-29
-2.483123951e-29
-2.483115389e-29
-2.483106787e-29
-2.483098161e-29
-2.483089523e-29
-2.483080889e-29
-2.483072271e-29
-2.483063685e-29
-2.483055144e-29
-2.483046661e-29
-2.483038251e-29
-2.483029926e-29
-2.483021699e-29
-2.483013584e-29
-2.483005593e-29
3.723156464e-26
-2.503447251e-29
-2.503447092e-29
-2.503446742e-29
-2.503446211e-29
-2.503445502e-29
-2.503444615e-29
-2.503443554e-29
-2.503442319e-29
-2.503440914e-29
-2.50343934e-29
-2.503437601e-29
-2.503435699e-29
-2.503433638e-29
-2.503431422e-29
-2.503429054e-29
-2.503426538e-29
-2.503423878e-29
-2.50342108e-29
-2.503418148e-29
-2.503415088e-29
-2.503411903e-29
-2.5034086e-29
-2.503405185e-29
-2.503401663e-29
-2.50339804e-29
-2.503394323e-29
-2.503390518e-29
-2.50338663e-29
-2.503382668e-29
-2.503378637e-29
-2.503374544e-29
-2.503370396e-29
-2.5033662e-29
-2.503361964e-29
-2.503357693e-29
-2.503353396e-29
-2.503349078e-29
-2.503344749e-29
-2.503340413e-29
-2.50333608e-29
-2.503331754e-29
-2.503327445e-29
-2.503323158e-29
-2.5033189e-29
-2.503314678e-29
-2.5033105e-29
-2.503306371e-29
-2.503302297e-29
-2.503298286e-29
2.966145729e-26
-2.52384936e-29
-2.52384928e-29
-2.523849104e-29
-2.523848838e-29
-2.523848481e-29
-2.523848036e-29
-2.523847504e-29
-2.523846884e-29
-2.523846179e-29
-2.523845389e-29
-2.523844516e-29
-2.523843562e-29
-2.523842527e-29
-2.523841415e-29
-2.523840226e-29
-2.523838963e-29
-2.523837629e-29
-2.523836224e-29
-2.523834753e-29
-2.523833216e-29
-2.523831618e-29
-2.52382996e-29
-2.523828246e-29
-2.523826479e-29
-2.52382466e-29
-2.523822795e-29
-2.523820885e-29
-2.523818933e-29
-2.523816945e-29
-2.523814921e-29
-2.523812867e-29
-2.523810785e-29
-2.52380868e-29
-2.523806553e-29
-2.52380441e-29
-2.523802253e-29
-2.523800086e-29
-2.523797913e-29
-2.523795737e-29
-2.523793562e-29
-2.523791391e-29
-2.523789228e-29
-2.523787077e-29
-2.52378494e-29
-2.523782821e-29
-2.523780724e-29
-2.523778652e-29
-2.523776608e-29
-2.523774595e-29
2.381719722e-26
-2.544472399e-29
-2.544472359e-29
-2.544472271e-29
-2.544472137e-29
-2.544471958e-29
-2.544471735e-29
-2.544471468e-29
-2.544471157e-29
-2.544470803e-29
-2.544470406e-29
-2.544469968e-29
-2.544469489e-29
-2.54446897e-29
-2.544468411e-29
-2.544467815e-29
-2.544467181e-29
-2.544466511e-29
-2.544465806e-29
-2.544465068e-29
-2.544464297e-29
-2.544463494e-29
-2.544462662e-29
-2.544461802e-29
-2.544460915e-29
-2.544460002e-29
-2.544459066e-29
-2.544458107e-29
-2.544457128e-29
-2.544456129e-29
-2.544455114e-29
-2.544454083e-29
-2.544453038e-29
-2.544451981e-29
-2.544450914e-29
-2.544449838e-29
-2.544448755e-29
-2.544447668e-29
-2.544446577e-29
-2.544445485e-29
-2.544444393e-29
-2.544443304e-29
-2.544442218e-29
-2.544441138e-29
-2.544440065e-29
-2.544439002e-29
-2.544437949e-29
-2.544436909e-29
-2.544435883e-29
-2.544434873e-29
1.94771972e-26
-2.565299069e-29
-2.565299049e-29
-2.565299005e-29
-2.565298938e-29
-2.565298848e-29
-2.565298736e-29
-2.565298602e-29
-2.565298445e-29
-2.565298268e-29
-2.565298069e-29
-2.565297849e-29
-2.565297608e-29
-2.565297348e-29
-2.565297068e-29
-2.565296768e-29
-2.56529645e-29
-2.565296114e-29
-2.56529576e-29
-2.565295389e-29
-2.565295002e-29
-2.565294599e-29
-2.565294182e-29
-2.56529375e-29
-2.565293305e-29
-2.565292847e-29
-2.565292377e-29
-2.565291895e-29
-2.565291404e-29
-2.565290903e-29
-2.565290393e-29
-2.565289876e-29
-2.565289351e-29
-2.565288821e-29
-2.565288285e-29
-2.565287745e-29
-2.565287201e-29
-2.565286656e-29
-2.565286108e-29
-2.56528556e-29
-2.565285012e-29
-2.565284465e-29
-2.56528392e-29
-2.565283378e-29
-2.56528284e-29
-2.565282306e-29
-2.565281777e-29
-2.565281255e-29
-2.56528074e-29
-2.565280233e-29
1.609029298e-26
-2.58632162e-29
-2.58632161e-29
-2.586321588e-29
-2.586321554e-29
-2.586321509e-29
-2.586321453e-29
-2.586321385e-29
-2.586321307e-29
-2.586321218e-29
-2.586321118e-29
-2.586321008e-29
-2.586320887e-29
-2.586320756e-29
-2.586320615e-29
-2.586320465e-29
-2.586320305e-29
-2.586320137e-29
-2.586319959e-29
-2.586319773e-29
-2.586319579e-29
-2.586319377e-29
-2.586319167e-29
-2.58631895e-29
-2.586318727e-29
-2.586318497e-29
-2.586318261e-29
-2.586318019e-29
-2.586317773e-29
-2.586317521e-29
-2.586317265e-29
-2.586317005e-29
-2.586316742e-29
-2.586316476e-29
-2.586316207e-29
-2.586315936e-29
-2.586315663e-29
-2.586315389e-29
-2.586315114e-29
-2.586314839e-29
-2.586314564e-29
-2.58631429e-29
-2.586314016e-29
-2.586313744e-29
-2.586313474e-29
-2.586313206e-29
-2.58631294e-29
-2.586312678e-29
-2.58631242e-29
-2.586312165e-29
1.346710096e-26
-2.607537107e-29
-2.607537102e-29
-2.607537091e-29
-2.607537074e-29
-2.607537052e-29
-2.607537023e-29
-2.60753699e-29
-2.60753695e-29
-2.607536905e-29
-2.607536855e-29
-2.6075368e-29
-2.607536739e-29
-2.607536674e-29
-2.607536603e-29
-2.607536528e-29
-2.607536447e-29
-2.607536363e-29
-2.607536274e-29
-2.60753618e-29
-2.607536083e-29
-2.607535981e-29
-2.607535876e-29
-2.607535767e-29
-2.607535655e-29
-2.607535539e-29
-2.607535421e-29
-2.6075353e-29
-2.607535176e-29
-2.60753505e-29
-2.607534921e-29
-2.607534791e-29
-2.607534659e-29
-2.607534525e-29
-2.60753439e-29
-2.607534254e-29
-2.607534117e-29
-2.607533979e-29
-2.607533841e-29
-2.607533703e-29
-2.607533565e-29
-2.607533427e-29
-2.60753329e-29
-2.607533153e-29
-2.607533018e-29
-2.607532883e-29
-2.60753275e-29
-2.607532618e-29
-2.607532489e-29
-2.607532361e-29
1.137334293e-26
-2.628945008e-29
-2.628945005e-29
-2.628945e-29
-2.628944991e-29
-2.62894498e-29
-2.628944966e-29
-2.628944949e-29
-2.628944929e-29
-2.628944906e-29
-2.628944881e-29
-2.628944853e-29
-2.628944823e-29
-2.62894479e-29
-2.628944755e-29
-2.628944717e-29
-2.628944676e-29
-2.628944634e-29
-2.628944589e-29
-2.628944542e-29
-2.628944493e-29
-2.628944442e-29
-2.62894439e-29
-2.628944335e-29
-2.628944279e-29
-2.628944221e-29
-2.628944161e-29
-2.6289441e-29
-2.628944038e-29
-2.628943975e-29
-2.62894391e-29
-2.628943845e-29
-2.628943778e-29
-2.628943711e-29
-2.628943643e-29
-2.628943575e-29
-2.628943506e-29
-2.628943437e-29
-2.628943368e-29
-2.628943298e-29
-2.628943229e-29
-2.62894316e-29
-2.628943091e-29
-2.628943022e-29
-2.628942954e-29
-2.628942887e-29
-2.62894282e-29
-2.628942754e-29
-2.628942688e-29
-2.628942624e-29
9.697994943e-27
-2.650546025e-29
-2.650546024e-29
-2.650546021e-29
-2.650546017e-29
-2.650546011e-29
-2.650546004e-29
-2.650545996e-29
-2.650545986e-29
-2.650545974e-29
-2.650545962e-29
-2.650545948e-29
-2.650545933e-29
-2.650545916e-29
-2.650545898e-29
-2.650545879e-29
-2.650545859e-29
-2.650545838e-29
-2.650545815e-29
-2.650545792e-29
-2.650545767e-29
-2.650545741e-29
-2.650545715e-29
-2.650545687e-29
-2.650545659e-29
-2.65054563e-29
-2.6505456e-29
-2.65054557e-29
-2.650545538e-29
-2.650545507e-29
-2.650545474e-29
-2.650545441e-29
-2.650545408e-29
-2.650545374e-29
-2.65054534e-29
-2.650545306e-29
-2.650545271e-29
-2.650545236e-29
-2.650545202e-29
-2.650545167e-29
-2.650545132e-29
-2.650545097e-29
-2.650545062e-29
-2.650545028e-29
-2.650544993e-29
-2.650544959e-29
-2.650544926e-29
-2.650544892e-29
-2.650544859e-29
-2.650544827e-29
8.335482359e-27
-2.67234149e-29
-2.672341489e-29
-2.672341488e-29
-2.672341486e-29
-2.672341483e-29
-2.672341479e-29
-2.672341475e-29
-2.67234147e-29
-2.672341464e-29
-2.672341458e-29
-2.672341451e-29
-2.672341443e-29
-2.672341435e-29
-2.672341426e-29
-2.672341417e-29
-2.672341406e-29
-2.672341396e-29
-2.672341385e-29
-2.672341373e-29
-2.67234136e-29
-2.672341348e-29
-2.672341334e-29
-2.672341321e-29
-2.672341306e-29
-2.672341292e-29
-2.672341277e-29
-2.672341262e-29
-2.672341246e-29
-2.67234123e-29
-2.672341214e-29
-2.672341197e-29
-2.672341181e-29
-2.672341164e-29
-2.672341147e-29
-2.67234113e-29
-2.672341112e-29
-2.672341095e-29
-2.672341078e-29
-2.67234106e-29
-2.672341043e-29
-2.672341026e-29
-2.672341008e-29
-2.672340991e-29
-2.672340974e-29
-2.672340957e-29
-2.672340941e-29
-2.672340924e-29
-2.672340908e-29
-2.672340892e-29
7.223657824e-27
-2.694333057e-29
-2.694333057e-29
-2.694333056e-29
-2.694333055e-29
-2.694333054e-29
-2.694333052e-29
-2.69433305e-29
-2.694333047e-29
-2.694333044e-29
-2.694333041e-29
-2.694333038e-29
-2.694333034e-29
-2.69433303e-29
-2.694333025e-29
-2.694333021e-29
-2.694333015e-29
-2.69433301e-29
-2.694333004e-29
-2.694332999e-29
-2.694332992e-29
-2.694332986e-29
-2.694332979e-29
-2.694332972e-29
-2.694332965e-29
-2.694332958e-29
-2.69433295e-29
-2.694332943e-29
-2.694332935e-29
-2.694332927e-29
-2.694332919e-29
-2.694332911e-29
-2.694332902e-29
-2.694332894e-29
-2.694332885e-29
-2.694332877e-29
-2.694332868e-29
-2.694332859e-29
-2.694332851e-29
-2.694332842e-29
-2.694332833e-29
-2.694332825e-29
-2.694332816e-29
-2.694332807e-29
-2.694332799e-29
-2.69433279e-29
-2.694332782e-29
-2.694332774e-29
-2.694332765e-29
-2.694332757e-29
6.298185162e-27
-2.716522558e-29
-2.716522558e-29
-2.716522558e-29
-2.716522557e-29
-2.716522557e-29
-2.716522556e-29
-2.716522555e-29
-2.716522553e-29
-2.716522552e-29
-2.71652255e-29
-2.716522549e-29
-2.716522547e-29
-2.716522545e-29
-2.716522542e-29
-2.71652254e-29
-2.716522537e-29
-2.716522535e-29
-2.716522532e-29
-2.716522529e-29
-2.716522526e-29
-2.716522523e-29
-2.716522519e-29
-2.716522516e-29
-2.716522512e-29
-2.716522509e-29
-2.716522505e-29
-2.716522501e-29
-2.716522497e-29
-2.716522493e-29
-2.716522489e-29
-2.716522485e-29
-2.716522481e-29
-2.716522476e-29
-2.716522472e-29
-2.716522468e-29
-2.716522463e-29
-2.716522459e-29
-2.716522455e-29
-2.71652245e-29
-2.716522446e-29
-2.716522441e-29
-2.716522437e-29
-2.716522433e-29
-2.716522428e-29
-2.716522424e-29
-2.71652242e-29
-2.716522416e-29
-2.716522412e-29
-2.716522408e-29
5.525527673e-27
-2.738911924e-29
-2.738911924e-29
-2.738911924e-29
-2.738911924e-29
-2.738911923e-29
-2.738911923e-29
-2.738911922e-29
-2.738911922e-29
-2.738911921e-29
-2.73891192e-29
-2.738911919e-29
-2.738911918e-29
-2.738911917e-29
-2.738911916e-29
-2.738911915e-29
-2.738911914e-29
-2.738911912e-29
-2.738911911e-29
-2.738911909e-29
-2.738911908e-29
-2.738911906e-29
-2.738911904e-29
-2.738911903e-29
-2.738911901e-29
-2.738911899e-29
-2.738911897e-29
-2.738911895e-29
-2.738911893e-29
-2.738911891e-29
-2.738911889e-29
-2.738911887e-29
-2.738911885e-29
-2.738911883e-29
-2.738911881e-29
-2.738911878e-29
-2.738911876e-29
-2.738911874e-29
-2.738911872e-29
-2.73891187e-29
-2.738911867e-29
-2.738911865e-29
-2.738911863e-29
-2.738911861e-29
-2.738911859e-29
-2.738911856e-29
-2.738911854e-29
-2.738911852e-29
-2.73891185e-29
-2.738911848e-29
4.875301668e-27
-2.761503147e-29
-2.761503147e-29
-2.761503147e-29
-2.761503147e-29
-2.761503147e-29
-2.761503147e-29
-2.761503146e-29
-2.761503146e-29
-2.761503146e-29
-2.761503145e-29
-2.761503145e-29
-2.761503144e-29
-2.761503144e-29
-2.761503143e-29
-2.761503142e-29
-2.761503142e-29
-2.761503141e-29
-2.76150314e-29
-2.76150314e-29
-2.761503139e-29
-2.761503138e-29
-2.761503137e-29
-2.761503136e-29
-2.761503135e-29
-2.761503134e-29
-2.761503133e-29
-2.761503132e-29
-2.761503131e-29
-2.76150313e-29
-2.761503129e-29
-2.761503128e-29
-2.761503127e-29
-2.761503126e-29
-2.761503125e-29
-2.761503124e-29
-2.761503123e-29
-2.761503121e-29
-2.76150312e-29
-2.761503119e-29
-2.761503118e-29
-2.761503117e-29
-2.761503116e-29
-2.761503114e-29
-2.761503113e-29
-2.761503112e-29
-2.761503111e-29
-2.76150311e-29
-2.761503109e-29
-2.761503108e-29
4.324088344e-27
-2.784298262e-29
-2.784298262e-29
-2.784298262e-29
-2.784298262e-29
-2.784298262e-29
-2.784298262e-29
-2.784298262e-29
-2.784298262e-29
-2.784298262e-29
-2.784298261e-29
-2.784298261e-29
-2.784298261e-29
-2.784298261e-29
-2.78429826e-29
-2.78429826e-29
-2.78429826e-29
-2.784298259e-29
-2.784298259e-29
-2.784298259e-29
-2.784298258e-29
-2.784298258e-29
-2.784298257e-29
-2.784298257e-29
-2.784298256e-29
-2.784298256e-29
-2.784298255e-29
-2.784298255e-29
-2.784298254e-29
-2.784298254e-29
-2.784298253e-29
-2.784298253e-29
-2.784298252e-29
-2.784298252e-29
-2.784298251e-29
-2.78429825e-29
-2.78429825e-29
-2.784298249e-29
-2.784298248e-29
-2.784298248e-29
-2.784298247e-29
-2.784298246e-29
-2.784298246e-29
-2.784298245e-29
-2.784298244e-29
-2.784298244e-29
-2.784298243e-29
-2.784298242e-29
-2.784298242e-29
-2.784298241e-29
3.8539638e-27
-2.807299338e-29
-2.807299338e-29
-2.807299338e-29
-2.807299338e-29
-2.807299338e-29
-2.807299338e-29
-2.807299338e-29
-2.807299338e-29
-2.807299338e-29
-2.807299338e-29
-2.807299338e-29
-2.807299338e-29
-2.807299338e-29
-2.807299338e-29
-2.807299337e-29
-2.807299337e-29
-2.807299337e-29
-2.807299337e-29
-2.807299337e-29
-2.807299337e-29
-2.807299336e-29
-2.807299336e-29
-2.807299336e-29
-2.807299336e-29
-2.807299336e-29
-2.807299335e-29
-2.807299335e-29
-2.807299335e-29
-2.807299335e-29
-2.807299335e-29
-2.807299334e-29
-2.807299334e-29
-2.807299334e-29
-2.807299334e-29
-2.807299333e-29
-2.807299333e-29
-2.807299333e-29
-2.807299333e-29
-2.807299333e-29
-2.807299332e-29
-2.807299332e-29
-2.807299332e-29
-2.807299332e-29
-2.807299332e-29
-2.807299332e-29
-2.807299332e-29
-2.807299332e-29
-2.807299332e-29
-2.807299332e-29
3.451342549e-27
-2.830508472e-29
-2.830508472e-29
-2.830508472e-29
-2.830508472e-29
-2.830508472e-29
-2.830508472e-29
-2.830508472e-29
-2.830508472e-29
-2.830508472e-29
-2.830508472e-29
-2.830508472e-29
-2.830508472e-29
-2.830508472e-29
-2.830508472e-29
-2.830508472e-29
-2.830508472e-29
-2.830508472e-29
-2.830508471e-29
-2.830508471e-29
-2.830508471e-29
-2.830508471e-29
-2.830508471e-29
-2.830508471e-29
-2.830508471e-29
-2.830508471e-29
-2.830508471e-29
-2.830508471e-29
-2.830508471e-29
-2.830508471e-29
-2.83050847e-29
-2.83050847e-29
-2.83050847e-29
-2.83050847e-29
-2.83050847e-29
-2.83050847e-29
-2.83050847e-29
-2.83050847e-29
-2.83050847e-29
-2.83050847e-29
-2.83050847e-29
-2.830508469e-29
-2.830508469e-29
-2.830508469e-29
-2.830508469e-29
-2.830508469e-29
-2.830508469e-29
-2.830508469e-29
-2.830508469e-29
-2.830508469e-29
3.102762123e-27
-2.853927788e-29
-2.853927788e-29
-2.853927788e-29
-2.853927788e-29
-2.853927788e-29
-2.853927788e-29
-2.853927788e-29
-2.853927788e-29
-2.853927788e-29
-2.853927788e-29
-2.853927788e-29
-2.853927788e-29
-2.853927788e-29
-2.853927788e-29
-2.853927788e-29
-2.853927788e-29
-2.853927788e-29
-2.853927788e-29
-2.853927787e-29
-2.853927787e-29
-2.853927787e-29
-2.853927787e-29
-2.853927787e-29
-2.853927787e-29
-2.853927787e-29
-2.853927787e-29
-2.853927787e-29
-2.853927787e-29
-2.853927787e-29
-2.853927787e-29
-2.853927787e-29
-2.853927787e-29
-2.853927787e-29
-2.853927787e-29
-2.853927787e-29
-2.853927787e-29
-2.853927787e-29
-2.853927787e-29
-2.853927787e-29
-2.853927787e-29
-2.853927786e-29
-2.853927786e-29
-2.853927786e-29
-2.853927786e-29
-2.853927786e-29
-2.853927786e-29
-2.853927786e-29
-2.853927786e-29
-2.853927786e-29
2.800395635e-27
-2.877559436e-29
-2.877559436e-29
-2.877559436e-29
-2.877559436e-29
-2.877559436e-29
-2.877559436e-29
-2.877559436e-29
-2.877559436e-29
-2.877559436e-29
-2.877559436e-29
-2.877559436e-29
-2.877559436e-29
-2.877559436e-29
-2.877559436e-29
-2.877559436e-29
-2.877559436e-29
-2.877559436e-29
-2.877559436e-29
-2.877559436e-29
-2.877559436e-29
-2.877559436e-29
-2.877559436e-29
-2.877559436e-29
-2.877559436e-29
-2.877559436e-29
-2.877559436e-29
-2.877559436e-29
-2.877559436e-29
-2.877559436e-29
-2.877559436e-29
-2.877559436e-29
-2.877559436e-29
-2.877559435e-29
-2.877559436e-29
-2.877559435e-29
-2.877559435e-29
-2.877559435e-29
-2.877559435e-29
-2.877559435e-29
-2.877559435e-29
-2.877559435e-29
-2.877559435e-29
-2.877559435e-29
-2.877559435e-29
-2.877559435e-29
-2.877559435e-29
-2.877559435e-29
-2.877559435e-29
-2.877559435e-29
2.536021013e-27
-2.901405594e-29
-2.901405594e-29
-2.901405594e-29
-2.901405594e-29
-2.901405594e-29
-2.901405594e-29
-2.901405593e-29
-2.901405593e-29
-2.901405593e-29
-2.901405593e-29
-2.901405593e-29
-2.901405593e-29
-2.901405593e-29
-2.901405593e-29
-2.901405593e-29
-2.901405593e-29
-2.901405593e-29
-2.901405593e-29
-2.901405593e-29
-2.901405593e-29
-2.901405593e-29
-2.901405593e-29
-2.901405593e-29
-2.901405593e-29
-2.901405593e-29
-2.901405593e-29
-2.901405593e-29
-2.901405593e-29
-2.901405593e-29
-2.901405593e-29