/*--------------------------------*- C++ -*----------------------------------*\
| =========                 |                                                 |
| \\      /  F ield         | OpenFOAM: The Open Source CFD Toolbox           |
|  \\    /   O peration     | Version:  5.x                                   |
|   \\  /    A nd           | Web:      www.OpenFOAM.org                      |
|    \\/     M anipulation  |                                                 |
\*---------------------------------------------------------------------------*/
FoamFile
{
    version     2.0;
    format      ascii;
    class       volScalarField;
    location    "0.01";
    object      dpstar;
}
// * * * * * * * * * * * * * * * * * * * * * * * * * * * * * * * * * * * * * //

dimensions      [0 1 0 0 0 0 0];

internalField   nonuniform List<scalar> 
7950
(
3.0640323e-10
2.548644156e-10
2.851842793e-10
2.883249734e-10
2.747972623e-10
3.687952453e-10
2.964259413e-10
3.824337739e-10
2.739394567e-10
3.899717889e-10
3.898098141e-10
3.250056409e-10
3.534789339e-10
2.753785754e-10
3.351579961e-10
3.735340789e-10
2.908852973e-10
2.683469087e-10
2.982163133e-10
4.772875178e-10
2.623717873e-10
3.40516773e-10
3.638592024e-10
2.245653474e-10
3.190614644e-10
3.99026271e-10
2.348504131e-10
3.445598126e-10
7.116000213e-10
2.51342381e-10
9.198605251e-10
6.525640602e-10
3.822261596e-10
2.879926219e-10
8.549604939e-10
4.922365221e-10
1.151287331e-09
2.090655995e-09
1.066698716e-09
4.446732291e-10
1.788933999e-09
3.000452735e-10
3.485692947e-10
1.11718251e-09
4.427287808e-10
4.3491235e-09
-1.759933611e-09
-4.398388053e-10
-4.025030184e-10
2.555040591e-09
-7.040840686e-10
-2.743843876e-09
-7.029607763e-10
-7.024379958e-10
-7.01065201e-10
-6.987354943e-10
-7.899162993e-10
-6.941550031e-10
-6.91696622e-10
-6.881697285e-10
-6.846552399e-10
-6.807973541e-10
-6.765964858e-10
-6.720487982e-10
-6.671542464e-10
-6.619355962e-10
-6.572526957e-10
-6.505097776e-10
-6.449121683e-10
-6.377443616e-10
-6.309483301e-10
-6.237426429e-10
-6.162844742e-10
1.103714105e-09
-6.004926019e-10
-5.921758289e-10
-5.867694807e-10
-5.747509145e-10
-5.656653619e-10
-5.568757129e-10
-5.468129052e-10
-5.370752034e-10
-5.271513042e-10
-5.170611023e-10
-5.068167787e-10
-4.964453951e-10
-4.859664045e-10
-4.754029805e-10
-4.64779826e-10
-4.541232454e-10
-4.434612278e-10
-4.328235494e-10
-4.222418916e-10
-4.117500052e-10
-4.01383893e-10
-3.911820661e-10
-3.811858539e-10
-3.714398128e-10
-3.619922488e-10
7.87365775e-09
-4.974006654e-10
-4.972570155e-10
-4.969409032e-10
-4.964611234e-10
-4.958194929e-10
-4.950172135e-10
-4.940554141e-10
-4.929352785e-10
-4.916581599e-10
-4.902255504e-10
-4.88639125e-10
-4.869007468e-10
-4.850124756e-10
-4.829765752e-10
-4.807955206e-10
-4.784720051e-10
-4.760089469e-10
-4.734094962e-10
-4.706770424e-10
-4.678152202e-10
-4.648279181e-10
-4.617192838e-10
-4.584937317e-10
-4.551606589e-10
-4.51710904e-10
-4.481638479e-10
-4.445203441e-10
-4.40786174e-10
-4.369675356e-10
-4.330708537e-10
-4.291028787e-10
-4.250706699e-10
-4.209815953e-10
-4.168433311e-10
-4.126638586e-10
-4.084514609e-10
-4.042147153e-10
-3.999624846e-10
-3.95703905e-10
-3.914483703e-10
-3.872055123e-10
-3.829851753e-10
-3.787973858e-10
-3.746523139e-10
-3.705602259e-10
-3.665314269e-10
-3.625761893e-10
-3.587046657e-10
-3.549267822e-10
1.237104808e-08
-4.183624427e-10
-4.182939956e-10
-4.181435106e-10
-4.179151168e-10
-4.176097935e-10
-4.172282157e-10
-4.167710452e-10
-4.162390043e-10
-4.156329013e-10
-4.149536423e-10
-4.142022365e-10
-4.133797994e-10
-4.124875553e-10
-4.115268378e-10
-4.104990912e-10
-4.094058711e-10
-4.082488447e-10
-4.070297908e-10
-4.057506001e-10
-4.044132753e-10
-4.030199303e-10
-4.015727899e-10
-4.000741891e-10
-3.985268491e-10
-3.969324916e-10
-3.952946055e-10
-3.936156769e-10
-3.918985709e-10
-3.901462518e-10
-3.883617802e-10
-3.865483093e-10
-3.847090803e-10
-3.82847418e-10
-3.809667249e-10
-3.790704753e-10
-3.771622082e-10
-3.752455197e-10
-3.733240539e-10
-3.714014942e-10
-3.694815519e-10
-3.675679553e-10
-3.656644369e-10
-3.637747199e-10
-3.619025036e-10
-3.600514474e-10
-3.582251544e-10
-3.564271536e-10
-3.546608818e-10
-3.529296641e-10
1.242146152e-08
-3.839282003e-10
-3.838949138e-10
-3.838217361e-10
-3.837106879e-10
-3.835622641e-10
-3.83376818e-10
-3.831547022e-10
-3.828963041e-10
-3.826020581e-10
-3.822724506e-10
-3.819080223e-10
-3.815093693e-10
-3.810771431e-10
-3.806120508e-10
-3.801148544e-10
-3.795863711e-10
-3.790274716e-10
-3.784390801e-10
-3.778221731e-10
-3.771777784e-10
-3.765069741e-10
-3.75810887e-10
-3.750906915e-10
-3.743476996e-10
-3.735829018e-10
-3.727978798e-10
-3.719938902e-10
-3.711723194e-10
-3.703345904e-10
-3.694821599e-10
-3.686165156e-10
-3.677391742e-10
-3.668516775e-10
-3.659555901e-10
-3.650524953e-10
-3.641439924e-10
-3.632316926e-10
-3.62317215e-10
-3.614021831e-10
-3.604882201e-10
-3.595769451e-10
-3.586699682e-10
-3.577688862e-10
-3.568752779e-10
-3.559906993e-10
-3.55116679e-10
-3.542547136e-10
-3.534062626e-10
-3.525727443e-10
1.566986029e-08
-3.682360341e-10
-3.682196668e-10
-3.681836858e-10
-3.681290876e-10
-3.680561201e-10
-3.679649627e-10
-3.67855796e-10
-3.677288191e-10
-3.675842549e-10
-3.674223534e-10
-3.672433916e-10
-3.670476747e-10
-3.668355355e-10
-3.666073346e-10
-3.663634595e-10
-3.661043246e-10
-3.658303706e-10
-3.655420636e-10
-3.652398947e-10
-3.649243791e-10
-3.645960554e-10
-3.642554846e-10
-3.639032495e-10
-3.635400051e-10
-3.631662187e-10
-3.627826874e-10
-3.623900179e-10
-3.619888852e-10
-3.615799792e-10
-3.611640033e-10
-3.607416733e-10
-3.603137159e-10
-3.598808671e-10
-3.594438709e-10
-3.590034779e-10
-3.585604431e-10
-3.581155251e-10
-3.576694839e-10
-3.572230793e-10
-3.567770694e-10
-3.563322087e-10
-3.558892464e-10
-3.554489249e-10
-3.550119776e-10
-3.545791276e-10
-3.54151086e-10
-3.5372855e-10
-3.533122013e-10
-3.529027047e-10
1.256638253e-08
-3.611261894e-10
-3.611180907e-10
-3.611002873e-10
-3.610732729e-10
-3.61037171e-10
-3.609920718e-10
-3.609380661e-10
-3.608752543e-10
-3.608037488e-10
-3.607236754e-10
-3.606351737e-10
-3.60538397e-10
-3.604335127e-10
-3.603207017e-10
-3.602001583e-10
-3.6007209e-10
-3.599367171e-10
-3.597942723e-10
-3.596450005e-10
-3.594891582e-10
-3.593270128e-10
-3.591588429e-10
-3.589849371e-10
-3.588056305e-10
-3.586211196e-10
-3.584318315e-10
-3.582380532e-10
-3.580401159e-10
-3.578383579e-10
-3.576331233e-10
-3.574247619e-10
-3.572136279e-10
-3.5700008e-10
-3.567844798e-10
-3.565671918e-10
-3.563485824e-10
-3.561290189e-10
-3.559088693e-10
-3.556885011e-10
-3.554682807e-10
-3.552485727e-10
-3.550297392e-10
-3.548121387e-10
-3.545961258e-10
-3.543820504e-10
-3.541702566e-10
-3.539610824e-10
-3.537548589e-10
-3.535519096e-10
1.236717619e-08
-3.581175479e-10
-3.581135257e-10
-3.581046837e-10
-3.580912673e-10
-3.580733379e-10
-3.580509407e-10
-3.58024121e-10
-3.57992929e-10
-3.57957421e-10
-3.579176598e-10
-3.578737153e-10
-3.578256641e-10
-3.577735897e-10
-3.577175824e-10
-3.576577392e-10
-3.575941635e-10
-3.575269652e-10
-3.5745626e-10
-3.573821698e-10
-3.573048222e-10
-3.572243501e-10
-3.571408917e-10
-3.570545902e-10
-3.569656249e-10
-3.568740538e-10
-3.567801277e-10
-3.566839753e-10
-3.565857604e-10
-3.564856502e-10
-3.563838144e-10
-3.562804255e-10
-3.561756584e-10
-3.560696895e-10
-3.55962697e-10
-3.558548604e-10
-3.557463598e-10
-3.55637376e-10
-3.5552809e-10
-3.554186823e-10
-3.553093333e-10
-3.55200222e-10
-3.550915266e-10
-3.549834235e-10
-3.54876087e-10
-3.547696895e-10
-3.546644005e-10
-3.545603865e-10
-3.544578111e-10
-3.543568339e-10
1.001298254e-08
-3.571121098e-10
-3.571101077e-10
-3.571057067e-10
-3.570990288e-10
-3.570901047e-10
-3.570789569e-10
-3.570656079e-10
-3.570500829e-10
-3.5703241e-10
-3.570126204e-10
-3.56990749e-10
-3.56966834e-10
-3.56940917e-10
-3.569130432e-10
-3.568832607e-10
-3.568516211e-10
-3.568181792e-10
-3.567829925e-10
-3.567461218e-10
-3.567076305e-10
-3.566675848e-10
-3.566260533e-10
-3.565831073e-10
-3.565388497e-10
-3.564932677e-10
-3.564465276e-10
-3.563986794e-10
-3.563498044e-10
-3.562999855e-10
-3.562493069e-10
-3.561978543e-10
-3.561457143e-10
-3.560929744e-10
-3.560397231e-10
-3.559860491e-10
-3.559320418e-10
-3.558777909e-10
-3.558233859e-10
-3.557689164e-10
-3.557144717e-10
-3.556601407e-10
-3.556060117e-10
-3.55552172e-10
-3.554987082e-10
-3.554457057e-10
-3.553932488e-10
-3.553414202e-10
-3.552903009e-10
-3.552399706e-10
9.042191408e-09
-3.570967638e-10
-3.570957661e-10
-3.570935727e-10
-3.570902445e-10
-3.570857969e-10
-3.570802411e-10
-3.570735883e-10
-3.57065851e-10
-3.570570432e-10
-3.570471806e-10
-3.570362805e-10
-3.570243619e-10
-3.570114457e-10
-3.569975543e-10
-3.569827118e-10
-3.569669437e-10
-3.569502775e-10
-3.569327417e-10
-3.569143668e-10
-3.568951841e-10
-3.568752268e-10
-3.56854529e-10
-3.568331261e-10
-3.568110839e-10
-3.567883528e-10
-3.567650586e-10
-3.56741212e-10
-3.567168533e-10
-3.566920239e-10
-3.566667656e-10
-3.566411211e-10
-3.566151333e-10
-3.56588846e-10
-3.56562303e-10
-3.565355486e-10
-3.565086272e-10
-3.564815833e-10
-3.564544616e-10
-3.564273067e-10
-3.564001628e-10
-3.563730743e-10
-3.563460851e-10
-3.563192387e-10
-3.562925781e-10
-3.56266146e-10
-3.562399841e-10
-3.562141338e-10
-3.561886354e-10
-3.561635286e-10
7.672156206e-09
-3.575743771e-10
-3.575738795e-10
-3.575727855e-10
-3.575711256e-10
-3.575689074e-10
-3.575661364e-10
-3.575628183e-10
-3.575589594e-10
-3.575545665e-10
-3.575496476e-10
-3.575442112e-10
-3.575382668e-10
-3.575318249e-10
-3.575248966e-10
-3.575174939e-10
-3.575096296e-10
-3.575013173e-10
-3.574925713e-10
-3.574834068e-10
-3.574738394e-10
-3.574638855e-10
-3.574535624e-10
-3.574428875e-10
-3.574319083e-10
-3.574205561e-10
-3.574089377e-10
-3.573970436e-10
-3.573848941e-10
-3.573725095e-10
-3.57359911e-10
-3.573471196e-10
-3.573341569e-10
-3.573210445e-10
-3.573078044e-10
-3.572944585e-10
-3.572810292e-10
-3.572675384e-10
-3.572540086e-10
-3.572404618e-10
-3.572269202e-10
-3.572134059e-10
-3.571999408e-10
-3.571865465e-10
-3.571732445e-10
-3.57160056e-10
-3.57147002e-10
-3.571341029e-10
-3.57121379e-10
-3.5710885e-10
6.871067001e-09
-3.582989757e-10
-3.582987274e-10
-3.582981816e-10
-3.582973534e-10
-3.582962466e-10
-3.58294864e-10
-3.582932084e-10
-3.58291283e-10
-3.582890912e-10
-3.582866368e-10
-3.582839243e-10
-3.582809583e-10
-3.582777441e-10
-3.582742872e-10
-3.582705935e-10
-3.582666696e-10
-3.582625221e-10
-3.582581582e-10
-3.582535854e-10
-3.582488116e-10
-3.58243845e-10
-3.582386941e-10
-3.582333676e-10
-3.582278748e-10
-3.582222249e-10
-3.582164276e-10
-3.582104927e-10
-3.582044303e-10
-3.581982506e-10
-3.581919641e-10
-3.581855813e-10
-3.581791129e-10
-3.581725698e-10
-3.581659629e-10
-3.581593032e-10
-3.581526017e-10
-3.581458696e-10
-3.581391178e-10
-3.581323575e-10
-3.581255997e-10
-3.581188554e-10
-3.581121355e-10
-3.581054509e-10
-3.580988122e-10
-3.580922301e-10
-3.58085715e-10
-3.580792771e-10
-3.580729265e-10
-3.58066673e-10
6.04508489e-09
-3.591483365e-10
-3.591482126e-10
-3.591479402e-10
-3.591475269e-10
-3.591469745e-10
-3.591462845e-10
-3.591454583e-10
-3.591444973e-10
-3.591434035e-10
-3.591421786e-10
-3.591408248e-10
-3.591393446e-10
-3.591377405e-10
-3.591360152e-10
-3.591341718e-10
-3.591322135e-10
-3.591301436e-10
-3.591279657e-10
-3.591256835e-10
-3.591233011e-10
-3.591208223e-10
-3.591182516e-10
-3.591155933e-10
-3.591128519e-10
-3.591100322e-10
-3.591071388e-10
-3.591041768e-10
-3.591011511e-10
-3.590980669e-10
-3.590949294e-10
-3.590917437e-10
-3.590885154e-10
-3.590852497e-10
-3.590819522e-10
-3.590786283e-10
-3.590752836e-10
-3.590719235e-10
-3.590685536e-10
-3.590651794e-10
-3.590618064e-10
-3.590584402e-10
-3.590550861e-10
-3.590517496e-10
-3.59048436e-10
-3.590451506e-10
-3.590418986e-10
-3.590386851e-10
-3.590355152e-10
-3.590323937e-10
5.467255249e-09
-3.600615973e-10
-3.600615354e-10
-3.600613995e-10
-3.600611932e-10
-3.600609175e-10
-3.600605731e-10
-3.600601607e-10
-3.60059681e-10
-3.60059135e-10
-3.600585237e-10
-3.60057848e-10
-3.600571092e-10
-3.600563085e-10
-3.600554473e-10
-3.600545272e-10
-3.600535498e-10
-3.600525166e-10
-3.600514295e-10
-3.600502904e-10
-3.600491013e-10
-3.60047864e-10
-3.600465809e-10
-3.60045254e-10
-3.600438857e-10
-3.600424783e-10
-3.600410341e-10
-3.600395556e-10
-3.600380453e-10
-3.600365059e-10
-3.600349398e-10
-3.600333497e-10
-3.600317383e-10
-3.600301082e-10
-3.600284623e-10
-3.600268031e-10
-3.600251336e-10
-3.600234564e-10
-3.600217742e-10
-3.6002009e-10
-3.600184063e-10
-3.60016726e-10
-3.600150518e-10
-3.600133863e-10
-3.600117322e-10
-3.600100923e-10
-3.600084689e-10
-3.600068649e-10
-3.600052825e-10
-3.600037243e-10
4.931450543e-09
-3.610084209e-10
-3.610083901e-10
-3.610083222e-10
-3.610082192e-10
-3.610080816e-10
-3.610079097e-10
-3.610077038e-10
-3.610074644e-10
-3.610071919e-10
-3.610068867e-10
-3.610065494e-10
-3.610061806e-10
-3.610057809e-10
-3.610053511e-10
-3.610048918e-10
-3.610044039e-10
-3.610038882e-10
-3.610033455e-10
-3.610027769e-10
-3.610021833e-10
-3.610015657e-10
-3.610009252e-10
-3.610002629e-10
-3.609995799e-10
-3.609988773e-10
-3.609981564e-10
-3.609974184e-10
-3.609966645e-10
-3.609958961e-10
-3.609951143e-10
-3.609943206e-10
-3.609935162e-10
-3.609927025e-10
-3.609918809e-10
-3.609910527e-10
-3.609902193e-10
-3.60989382e-10
-3.609885423e-10
-3.609877016e-10
-3.609868611e-10
-3.609860224e-10
-3.609851866e-10
-3.609843552e-10
-3.609835295e-10
-3.609827109e-10
-3.609819005e-10
-3.609810998e-10
-3.609803099e-10
-3.60979532e-10
4.513553747e-09
-3.619736813e-10
-3.619736659e-10
-3.61973632e-10
-3.619735806e-10
-3.619735119e-10
-3.619734261e-10
-3.619733233e-10
-3.619732038e-10
-3.619730678e-10
-3.619729154e-10
-3.619727471e-10
-3.61972563e-10
-3.619723635e-10
-3.619721489e-10
-3.619719196e-10
-3.61971676e-10
-3.619714186e-10
-3.619711477e-10
-3.619708639e-10
-3.619705676e-10
-3.619702593e-10
-3.619699395e-10
-3.619696089e-10
-3.61969268e-10
-3.619689172e-10
-3.619685574e-10
-3.61968189e-10
-3.619678126e-10
-3.61967429e-10
-3.619670388e-10
-3.619666426e-10
-3.61966241e-10
-3.619658348e-10
-3.619654247e-10
-3.619650112e-10
-3.619645952e-10
-3.619641773e-10
-3.619637581e-10
-3.619633384e-10
-3.619629188e-10
-3.619625001e-10
-3.619620829e-10
-3.619616679e-10
-3.619612557e-10
-3.61960847e-10
-3.619604425e-10
-3.619600428e-10
-3.619596484e-10
-3.619592602e-10
4.142897818e-09
-3.629498386e-10
-3.629498309e-10
-3.62949814e-10
-3.629497883e-10
-3.62949754e-10
-3.629497112e-10
-3.629496599e-10
-3.629496002e-10
-3.629495323e-10
-3.629494563e-10
-3.629493722e-10
-3.629492803e-10
-3.629491807e-10
-3.629490736e-10
-3.629489591e-10
-3.629488376e-10
-3.62948709e-10
-3.629485738e-10
-3.629484321e-10
-3.629482842e-10
-3.629481303e-10
-3.629479707e-10
-3.629478056e-10
-3.629476354e-10
-3.629474604e-10
-3.629472807e-10
-3.629470968e-10
-3.629469089e-10
-3.629467174e-10
-3.629465226e-10
-3.629463248e-10
-3.629461244e-10
-3.629459216e-10
-3.629457169e-10
-3.629455105e-10
-3.629453028e-10
-3.629450941e-10
-3.629448849e-10
-3.629446754e-10
-3.629444659e-10
-3.629442569e-10
-3.629440486e-10
-3.629438414e-10
-3.629436357e-10
-3.629434317e-10
-3.629432297e-10
-3.629430302e-10
-3.629428333e-10
-3.629426394e-10
3.840590064e-09
-3.639331383e-10
-3.639331344e-10
-3.63933126e-10
-3.639331132e-10
-3.639330961e-10
-3.639330747e-10
-3.639330491e-10
-3.639330193e-10
-3.639329854e-10
-3.639329474e-10
-3.639329055e-10
-3.639328596e-10
-3.639328099e-10
-3.639327564e-10
-3.639326993e-10
-3.639326386e-10
-3.639325744e-10
-3.639325069e-10
-3.639324362e-10
-3.639323623e-10
-3.639322855e-10
-3.639322058e-10
-3.639321234e-10
-3.639320385e-10
-3.639319511e-10
-3.639318614e-10
-3.639317696e-10
-3.639316758e-10
-3.639315802e-10
-3.63931483e-10
-3.639313842e-10
-3.639312842e-10
-3.639311829e-10
-3.639310807e-10
-3.639309777e-10
-3.63930874e-10
-3.639307699e-10
-3.639306654e-10
-3.639305608e-10
-3.639304563e-10
-3.639303519e-10
-3.63930248e-10
-3.639301446e-10
-3.639300418e-10
-3.6392994e-10
-3.639298392e-10
-3.639297396e-10
-3.639296413e-10
-3.639295446e-10
3.569691432e-09
-3.649217151e-10
-3.649217132e-10
-3.64921709e-10
-3.649217026e-10
-3.64921694e-10
-3.649216833e-10
-3.649216706e-10
-3.649216557e-10
-3.649216388e-10
-3.649216198e-10
-3.649215989e-10
-3.64921576e-10
-3.649215511e-10
-3.649215245e-10
-3.649214959e-10
-3.649214656e-10
-3.649214336e-10
-3.649213999e-10
-3.649213646e-10
-3.649213277e-10
-3.649212894e-10
-3.649212496e-10
-3.649212085e-10
-3.649211661e-10
-3.649211224e-10
-3.649210777e-10
-3.649210318e-10
-3.64920985e-10
-3.649209373e-10
-3.649208887e-10
-3.649208395e-10
-3.649207895e-10
-3.64920739e-10
-3.64920688e-10
-3.649206365e-10
-3.649205848e-10
-3.649205328e-10
-3.649204806e-10
-3.649204284e-10
-3.649203762e-10
-3.649203241e-10
-3.649202722e-10
-3.649202206e-10
-3.649201693e-10
-3.649201185e-10
-3.649200682e-10
-3.649200184e-10
-3.649199694e-10
-3.649199211e-10
3.338176378e-09
-3.659146468e-10
-3.659146459e-10
-3.659146438e-10
-3.659146406e-10
-3.659146363e-10
-3.65914631e-10
-3.659146246e-10
-3.659146172e-10
-3.659146087e-10
-3.659145992e-10
-3.659145888e-10
-3.659145774e-10
-3.65914565e-10
-3.659145516e-10
-3.659145374e-10
-3.659145223e-10
-3.659145063e-10
-3.659144895e-10
-3.659144718e-10
-3.659144534e-10
-3.659144343e-10
-3.659144144e-10
-3.659143939e-10
-3.659143727e-10
-3.65914351e-10
-3.659143286e-10
-3.659143057e-10
-3.659142824e-10
-3.659142585e-10
-3.659142343e-10
-3.659142097e-10
-3.659141847e-10
-3.659141595e-10
-3.659141341e-10
-3.659141084e-10
-3.659140825e-10
-3.659140566e-10
-3.659140306e-10
-3.659140045e-10
-3.659139784e-10
-3.659139524e-10
-3.659139265e-10
-3.659139007e-10
-3.659138751e-10
-3.659138498e-10
-3.659138246e-10
-3.659137998e-10
-3.659137753e-10
-3.659137512e-10
3.132240566e-09
-3.66911482e-10
-3.669114815e-10
-3.669114805e-10
-3.669114789e-10
-3.669114768e-10
-3.669114741e-10
-3.669114709e-10
-3.669114672e-10
-3.66911463e-10
-3.669114583e-10
-3.669114531e-10
-3.669114474e-10
-3.669114412e-10
-3.669114345e-10
-3.669114274e-10
-3.669114199e-10
-3.669114119e-10
-3.669114035e-10
-3.669113947e-10
-3.669113855e-10
-3.669113759e-10
-3.66911366e-10
-3.669113558e-10
-3.669113452e-10
-3.669113343e-10
-3.669113232e-10
-3.669113117e-10
-3.669113001e-10
-3.669112882e-10
-3.669112761e-10
-3.669112638e-10
-3.669112513e-10
-3.669112388e-10
-3.66911226e-10
-3.669112132e-10
-3.669112003e-10
-3.669111874e-10
-3.669111744e-10
-3.669111614e-10
-3.669111483e-10
-3.669111354e-10
-3.669111224e-10
-3.669111096e-10
-3.669110968e-10
-3.669110841e-10
-3.669110716e-10
-3.669110592e-10
-3.66911047e-10
-3.669110349e-10
2.951833323e-09
-3.679120044e-10
-3.679120041e-10
-3.679120036e-10
-3.679120028e-10
-3.679120018e-10
-3.679120004e-10
-3.679119988e-10
-3.67911997e-10
-3.679119949e-10
-3.679119925e-10
-3.679119899e-10
-3.679119871e-10
-3.67911984e-10
-3.679119807e-10
-3.679119771e-10
-3.679119733e-10
-3.679119694e-10
-3.679119652e-10
-3.679119608e-10
-3.679119562e-10
-3.679119514e-10
-3.679119465e-10
-3.679119413e-10
-3.679119361e-10
-3.679119306e-10
-3.679119251e-10
-3.679119194e-10
-3.679119135e-10
-3.679119076e-10
-3.679119016e-10
-3.679118954e-10
-3.679118892e-10
-3.679118829e-10
-3.679118766e-10
-3.679118702e-10
-3.679118637e-10
-3.679118573e-10
-3.679118508e-10
-3.679118443e-10
-3.679118378e-10
-3.679118313e-10
-3.679118248e-10
-3.679118184e-10
-3.67911812e-10
-3.679118057e-10
-3.679117994e-10
-3.679117933e-10
-3.679117872e-10
-3.679117811e-10
2.790164683e-09
-3.68916115e-10
-3.689161148e-10
-3.689161146e-10
-3.689161142e-10
-3.689161136e-10
-3.68916113e-10
-3.689161122e-10
-3.689161113e-10
-3.689161102e-10
-3.68916109e-10
-3.689161077e-10
-3.689161063e-10
-3.689161048e-10
-3.689161031e-10
-3.689161013e-10
-3.689160995e-10
-3.689160975e-10
-3.689160954e-10
-3.689160932e-10
-3.689160909e-10
-3.689160885e-10
-3.68916086e-10
-3.689160835e-10
-3.689160808e-10
-3.689160781e-10
-3.689160753e-10
-3.689160725e-10
-3.689160696e-10
-3.689160666e-10
-3.689160636e-10
-3.689160605e-10
-3.689160574e-10
-3.689160543e-10
-3.689160511e-10
-3.689160479e-10
-3.689160447e-10
-3.689160415e-10
-3.689160382e-10
-3.68916035e-10
-3.689160318e-10
-3.689160285e-10
-3.689160253e-10
-3.689160221e-10
-3.689160189e-10
-3.689160157e-10
-3.689160126e-10
-3.689160095e-10
-3.689160065e-10
-3.689160035e-10
2.645824967e-09
-3.699237735e-10
-3.699237734e-10
-3.699237733e-10
-3.699237731e-10
-3.699237728e-10
-3.699237725e-10
-3.699237721e-10
-3.699237716e-10
-3.699237711e-10
-3.699237705e-10
-3.699237699e-10
-3.699237692e-10
-3.699237684e-10
-3.699237676e-10
-3.699237667e-10
-3.699237657e-10
-3.699237648e-10
-3.699237637e-10
-3.699237626e-10
-3.699237615e-10
-3.699237603e-10
-3.69923759e-10
-3.699237578e-10
-3.699237564e-10
-3.699237551e-10
-3.699237537e-10
-3.699237523e-10
-3.699237508e-10
-3.699237493e-10
-3.699237478e-10
-3.699237463e-10
-3.699237448e-10
-3.699237432e-10
-3.699237416e-10
-3.6992374e-10
-3.699237384e-10
-3.699237368e-10
-3.699237352e-10
-3.699237335e-10
-3.699237319e-10
-3.699237303e-10
-3.699237287e-10
-3.699237271e-10
-3.699237255e-10
-3.699237239e-10
-3.699237223e-10
-3.699237208e-10
-3.699237192e-10
-3.699237177e-10
2.515614203e-09
-3.70934969e-10
-3.70934969e-10
-3.709349689e-10
-3.709349689e-10
-3.709349687e-10
-3.709349686e-10
-3.709349684e-10
-3.709349681e-10
-3.709349679e-10
-3.709349676e-10
-3.709349672e-10
-3.709349669e-10
-3.709349665e-10
-3.709349661e-10
-3.709349657e-10
-3.709349652e-10
-3.709349647e-10
-3.709349642e-10
-3.709349636e-10
-3.709349631e-10
-3.709349625e-10
-3.709349618e-10
-3.709349612e-10
-3.709349606e-10
-3.709349599e-10
-3.709349592e-10
-3.709349585e-10
-3.709349578e-10
-3.70934957e-10
-3.709349563e-10
-3.709349555e-10
-3.709349547e-10
-3.70934954e-10
-3.709349532e-10
-3.709349524e-10
-3.709349516e-10
-3.709349508e-10
-3.7093495e-10
-3.709349492e-10
-3.709349484e-10
-3.709349476e-10
-3.709349468e-10
-3.70934946e-10
-3.709349452e-10
-3.709349444e-10
-3.709349436e-10
-3.709349429e-10
-3.709349421e-10
-3.709349414e-10
2.398388397e-09
-3.719497054e-10
-3.719497054e-10
-3.719497054e-10
-3.719497053e-10
-3.719497053e-10
-3.719497052e-10
-3.719497051e-10
-3.71949705e-10
-3.719497048e-10
-3.719497047e-10
-3.719497045e-10
-3.719497043e-10
-3.719497042e-10
-3.719497039e-10
-3.719497037e-10
-3.719497035e-10
-3.719497032e-10
-3.71949703e-10
-3.719497027e-10
-3.719497024e-10
-3.719497021e-10
-3.719497018e-10
-3.719497015e-10
-3.719497012e-10
-3.719497009e-10
-3.719497005e-10
-3.719497002e-10
-3.719496998e-10
-3.719496994e-10
-3.719496991e-10
-3.719496987e-10
-3.719496983e-10
-3.719496979e-10
-3.719496975e-10
-3.719496971e-10
-3.719496967e-10
-3.719496963e-10
-3.719496959e-10
-3.719496955e-10
-3.719496951e-10
-3.719496947e-10
-3.719496943e-10
-3.719496939e-10
-3.719496935e-10
-3.719496931e-10
-3.719496927e-10
-3.719496924e-10
-3.71949692e-10
-3.719496916e-10
2.291248889e-09
-3.729679938e-10
-3.729679938e-10
-3.729679938e-10
-3.729679938e-10
-3.729679937e-10
-3.729679937e-10
-3.729679937e-10
-3.729679936e-10
-3.729679935e-10
-3.729679935e-10
-3.729679934e-10
-3.729679933e-10
-3.729679932e-10
-3.729679931e-10
-3.72967993e-10
-3.729679929e-10
-3.729679927e-10
-3.729679926e-10
-3.729679925e-10
-3.729679923e-10
-3.729679922e-10
-3.72967992e-10
-3.729679919e-10
-3.729679917e-10
-3.729679915e-10
-3.729679914e-10
-3.729679912e-10
-3.72967991e-10
-3.729679908e-10
-3.729679906e-10
-3.729679905e-10
-3.729679903e-10
-3.729679901e-10
-3.729679899e-10
-3.729679897e-10
-3.729679895e-10
-3.729679893e-10
-3.729679891e-10
-3.729679889e-10
-3.729679887e-10
-3.729679885e-10
-3.729679883e-10
-3.729679881e-10
-3.729679879e-10
-3.729679877e-10
-3.729679875e-10
-3.729679873e-10
-3.729679871e-10
-3.729679869e-10
2.193436395e-09
-3.739898492e-10
-3.739898492e-10
-3.739898492e-10
-3.739898492e-10
-3.739898492e-10
-3.739898492e-10
-3.739898492e-10
-3.739898491e-10
-3.739898491e-10
-3.739898491e-10
-3.73989849e-10
-3.73989849e-10
-3.739898489e-10
-3.739898489e-10
-3.739898488e-10
-3.739898488e-10
-3.739898487e-10
-3.739898486e-10
-3.739898486e-10
-3.739898485e-10
-3.739898484e-10
-3.739898483e-10
-3.739898483e-10
-3.739898482e-10
-3.739898481e-10
-3.73989848e-10
-3.739898479e-10
-3.739898478e-10
-3.739898477e-10
-3.739898476e-10
-3.739898475e-10
-3.739898475e-10
-3.739898474e-10
-3.739898473e-10
-3.739898472e-10
-3.739898471e-10
-3.73989847e-10
-3.739898469e-10
-3.739898468e-10
-3.739898466e-10
-3.739898465e-10
-3.739898464e-10
-3.739898463e-10
-3.739898462e-10
-3.739898461e-10
-3.739898461e-10
-3.73989846e-10
-3.739898459e-10
-3.739898458e-10
2.103783076e-09
-3.750152886e-10
-3.750152886e-10
-3.750152886e-10
-3.750152886e-10
-3.750152886e-10
-3.750152886e-10
-3.750152886e-10
-3.750152886e-10
-3.750152885e-10
-3.750152885e-10
-3.750152885e-10
-3.750152885e-10
-3.750152885e-10
-3.750152884e-10
-3.750152884e-10
-3.750152884e-10
-3.750152883e-10
-3.750152883e-10
-3.750152883e-10
-3.750152882e-10
-3.750152882e-10
-3.750152882e-10
-3.750152881e-10
-3.750152881e-10
-3.75015288e-10
-3.75015288e-10
-3.750152879e-10
-3.750152879e-10
-3.750152879e-10
-3.750152878e-10
-3.750152878e-10
-3.750152877e-10
-3.750152877e-10
-3.750152876e-10
-3.750152876e-10
-3.750152875e-10
-3.750152875e-10
-3.750152874e-10
-3.750152873e-10
-3.750152873e-10
-3.750152872e-10
-3.750152872e-10
-3.750152871e-10
-3.750152871e-10
-3.75015287e-10
-3.75015287e-10
-3.750152869e-10
-3.750152869e-10
-3.750152868e-10
2.021305598e-09
-3.760443299e-10
-3.760443299e-10
-3.760443299e-10
-3.760443299e-10
-3.760443299e-10
-3.760443299e-10
-3.760443299e-10
-3.760443299e-10
-3.760443299e-10
-3.760443299e-10
-3.760443299e-10
-3.760443299e-10
-3.760443299e-10
-3.760443298e-10
-3.760443298e-10
-3.760443298e-10
-3.760443298e-10
-3.760443298e-10
-3.760443298e-10
-3.760443297e-10
-3.760443297e-10
-3.760443297e-10
-3.760443297e-10
-3.760443297e-10
-3.760443296e-10
-3.760443296e-10
-3.760443296e-10
-3.760443296e-10
-3.760443295e-10
-3.760443295e-10
-3.760443295e-10
-3.760443295e-10
-3.760443294e-10
-3.760443294e-10
-3.760443294e-10
-3.760443294e-10
-3.760443293e-10
-3.760443293e-10
-3.760443293e-10
-3.760443292e-10
-3.760443292e-10
-3.760443292e-10
-3.760443291e-10
-3.760443291e-10
-3.760443291e-10
-3.760443291e-10
-3.76044329e-10
-3.76044329e-10
-3.76044329e-10
1.945224226e-09
-3.770769917e-10
-3.770769917e-10
-3.770769917e-10
-3.770769917e-10
-3.770769917e-10
-3.770769917e-10
-3.770769917e-10
-3.770769917e-10
-3.770769917e-10
-3.770769917e-10
-3.770769917e-10
-3.770769917e-10
-3.770769917e-10
-3.770769917e-10
-3.770769917e-10
-3.770769917e-10
-3.770769917e-10
-3.770769917e-10
-3.770769916e-10
-3.770769916e-10
-3.770769916e-10
-3.770769916e-10
-3.770769916e-10
-3.770769916e-10
-3.770769916e-10
-3.770769916e-10
-3.770769916e-10
-3.770769916e-10
-3.770769916e-10
-3.770769915e-10
-3.770769915e-10
-3.770769915e-10
-3.770769915e-10
-3.770769915e-10
-3.770769915e-10
-3.770769915e-10
-3.770769915e-10
-3.770769915e-10
-3.770769915e-10
-3.770769915e-10
-3.770769914e-10
-3.770769914e-10
-3.770769914e-10
-3.770769914e-10
-3.770769914e-10
-3.770769914e-10
-3.770769914e-10
-3.770769914e-10
-3.770769914e-10
1.874979316e-09
-3.781132929e-10
-3.781132929e-10
-3.781132929e-10
-3.781132929e-10
-3.781132929e-10
-3.781132929e-10
-3.781132929e-10
-3.781132929e-10
-3.781132929e-10
-3.781132929e-10
-3.781132929e-10
-3.781132929e-10
-3.781132929e-10
-3.781132929e-10
-3.781132929e-10
-3.781132929e-10
-3.781132929e-10
-3.781132929e-10
-3.781132928e-10
-3.781132928e-10
-3.781132928e-10
-3.781132928e-10
-3.781132928e-10
-3.781132928e-10
-3.781132928e-10
-3.781132928e-10
-3.781132928e-10
-3.781132928e-10
-3.781132928e-10
-3.781132928e-10
-3.781132928e-10
-3.781132928e-10
-3.781132928e-10
-3.781132928e-10
-3.781132928e-10
-3.781132928e-10
-3.781132928e-10
-3.781132928e-10
-3.781132928e-10
-3.781132928e-10
-3.781132928e-10
-3.781132928e-10
-3.781132928e-10
-3.781132928e-10
-3.781132928e-10
-3.781132927e-10
-3.781132927e-10
-3.781132927e-10
-3.781132927e-10
1.809602911e-09
-3.791532526e-10
-3.791532526e-10
-3.791532526e-10
-3.791532526e-10
-3.791532526e-10
-3.791532526e-10
-3.791532526e-10
-3.791532526e-10
-3.791532526e-10
-3.791532526e-10
-3.791532526e-10
-3.791532526e-10
-3.791532526e-10
-3.791532525e-10
-3.791532525e-10
-3.791532525e-10
-3.791532525e-10
-3.791532525e-10
-3.791532525e-10
-3.791532525e-10
-3.791532525e-10
-3.791532525e-10
-3.791532525e-10
-3.791532525e-10
-3.791532525e-10
-3.791532525e-10
-3.791532525e-10
-3.791532525e-10
-3.791532525e-10
-3.791532525e-10
-3.791532525e-10
-3.791532525e-10
-3.791532525e-10
-3.791532525e-10
-3.791532525e-10
-3.791532525e-10
-3.791532525e-10
-3.791532525e-10
-3.791532525e-10
-3.791532525e-10
-3.791532525e-10
-3.791532525e-10
-3.791532525e-10
-3.791532525e-10
-3.791532525e-10
-3.791532525e-10
-3.791532525e-10
-3.791532525e-10
-3.791532525e-10
1.748800451e-09
-3.801968901e-10
-3.801968901e-10
-3.801968901e-10
-3.801968901e-10
-3.801968901e-10
-3.801968901e-10
-3.801968901e-10
-3.801968901e-10
-3.801968901e-10
-3.801968901e-10
-3.801968901e-10
-3.801968901e-10
-3.801968901e-10
-3.801968901e-10
-3.801968901e-10
-3.801968901e-10
-3.801968901e-10
-3.801968901e-10
-3.801968901e-10
-3.801968901e-10
-3.801968901e-10
-3.801968901e-10
-3.801968901e-10
-3.801968901e-10
-3.801968901e-10
-3.801968901e-10
-3.801968901e-10
-3.801968901e-10
-3.801968901e-10
-3.801968901e-10
-3.801968901e-10
-3.801968901e-10
-3.801968901e-10
-3.801968901e-10
-3.801968901e-10
-3.801968901e-10
-3.801968901e-10
-3.801968901e-10
-3.801968901e-10
-3.801968901e-10
-3.801968901e-10
-3.801968901e-10
-3.801968901e-10
-3.801968901e-10
-3.801968901e-10
-3.801968901e-10
-3.801968901e-10
-3.801968901e-10
-3.801968901e-10
1.691939158e-09
-3.812442251e-10
-3.812442251e-10
-3.812442251e-10
-3.812442251e-10
-3.812442251e-10
-3.812442251e-10
-3.812442251e-10
-3.812442251e-10
-3.812442251e-10
-3.812442251e-10
-3.812442251e-10
-3.812442251e-10
-3.812442251e-10
-3.812442251e-10
-3.812442251e-10
-3.812442251e-10
-3.812442251e-10
-3.812442251e-10
-3.812442251e-10
-3.812442251e-10
-3.812442251e-10
-3.812442251e-10
-3.812442251e-10
-3.812442251e-10
-3.812442251e-10
-3.81244225e-10
-3.81244225e-10