/*--------------------------------*- C++ -*----------------------------------*\
| =========                 |                                                 |
| \\      /  F ield         | OpenFOAM: The Open Source CFD Toolbox           |
|  \\    /   O peration     | Version:  5.x                                   |
|   \\  /    A nd           | Web:      www.OpenFOAM.org                      |
|    \\/     M anipulation  |                                                 |
\*---------------------------------------------------------------------------*/
FoamFile
{
    version     2.0;
    format      ascii;
    class       volScalarField;
    location    "0.01";
    object      Jk;
}
// * * * * * * * * * * * * * * * * * * * * * * * * * * * * * * * * * * * * * //

dimensions      [0 -3 -1 0 0 0 0];

internalField   nonuniform List<scalar> 
7950
(
3.300256339e+10
7.09995718e+13
7.411748335e+11
5.175736744e+11
4.277471721e+12
13981120.62
2.676519188e+11
4049529.984
1.108384845e+13
3095350.144
4764468.508
2.740084259e+10
1139270136
5.42628354e+13
3.241879779e+10
526123097.7
3.037186053e+13
1.179064624e+15
4.158465747e+13
60458.4531
1.895343811e+16
2.658279576e+12
4.885897849e+11
4.00445143e+19
5.253530404e+14
3.069987631e+11
1.013294074e+20
9.587800607e+14
0.02862442381
2.241813888e+20
2.676789886e-12
28449.90145
2.945429389e+16
5.56799043e+20
0.009490153514
6.958070162e+14
2.003427118e-16
4.712903165e-94
4.322820447e-07
8.657183787e+19
1.192925109e-49
2.934440614e+25
8.598850589e+24
170.6909093
2.907895495e+24
2.608574093e-282
6.016182218e-21
1.007531088e+14
3.790205512e+14
1.929369548e-46
1311330.706
4.002145415e-146
84573.81958
7663194.065
10159559.81
29045.44358
3343088.225
74893.0654
27288442.59
9534.242994
60172.35173
1324614.997
5803258.189
11132608.98
254865.3786
32377111.9
1.209520069e+10
751137854.1
5.005546799e+10
100707.4458
2.657681393e+10
858185252
1065768563
94.28458534
4565866528
18254455.84
7.061494091e+14
1.694182239e+10
2410118232
3.637678713e+15
8372840653
550485990.5
2986246919
1.364640098e+15
783825118.5
1.530432117e+11
2118604140
2656612300
1.47313552e+11
7.039264667e+12
5.652127817e+10
2.631019465e+15
1.275504909e+15
9.861569605e+15
1.832787704e+14
4.863520494e+14
4.453273708e+14
2.383353269e+10
9.418493231e+13
0
1069836698
3.86015141e+14
23405771.67
4.099379157e+11
31617287.61
3048103.156
4.005411371e+13
2196986777
119978523.8
38004444.84
1114968769
128748263.3
689638015.8
9556813.003
4615061.424
2302601531
2.497334368e+12
71593376.05
1.085917085e+13
287421.9651
3155989593
6461838410
717349550.6
1.579571007e+18
24240809.63
3331757157
1.778699978e+16
24626632.45
3.81017825e+10
2.902072674e+12
3.877590896e+10
1068703.988
217930012.2
1.249642402e+15
899883.2913
6670352.586
510234.5114
417026.0016
6530297.983
9169148.828
636592.7153
5.301298096e+10
1906464356
1.871896922e+13
164070539
8.339992225e+10
3.647834488e+10
5204518861
2750430437
0
1029962745
2.596346609e+13
936637760.8
2.505482557e+12
46049.87672
1013365415
9.173058005e+13
2.467436542e+10
93563.07828
322037454.9
9707400960
116259.1182
5095244.942
33010.96887
12720.2514
14620174.15
7144233907
19727453.74
6259397675
9865.188001
15554612.93
324963.8978
1812798965
1.53459659e+19
489968.8078
101504115.9
3.013242693e+10
1.319949448e+10
1.029888488e+11
4827601.131
1.615919034e+10
1.822873204e+10
2.163442322e+12
2.123356626e+15
429765.9407
5239.791816
1807.326823
947.7431487
12922.72449
47549.98826
1549.24787
16747923.21
65057891.18
2.042575302e+12
34261.49822
1.204888079e+10
7600258908
1794610211
8.018532266e+13
0
62631679.1
2.620706579e+10
3.821984511e+10
6.187447593e+12
105072.434
1.84529502e+11
2.311361107e+13
5.632306684e+10
6609.200663
512061732
1805366431
1038.070834
4091.52497
1423.042261
540.8908255
2191084.507
2893766.876
271125.7739
161720.3985
148.7978908
48330.2532
489231.2663
1.151940662e+10
3.764663556e+19
25288.59008
417404.2196
1674275.113
2694819715
3.044289108e+10
30174.10219
4582223651
6.432513287e+11
2.865988424e+14
3.425614348e+15
565133.3496
275.7435404
1373.802042
57.92179099
389.6902314
324.2637947
40151.58931
738926.4678
8620683425
1.193085083e+12
5356.591787
1744147187
2110726552
80425.77852
4507596999
0
30986803.26
5740620.883
3.384601428e+10
7.386287413e+12
565234.9301
1.129119829e+12
3.545754498e+13
7.849006206e+10
10554.07357
479643784.7
187472544
76.70309381
238.7223318
2026.717577
12979.31433
2461890.237
1932.158069
2675.186408
2330.931474
484.3519622
3739.81342
239668.1183
3.238090671e+11
5.072550213e+19
4441.971585
3104.70194
3391.913445
5782061.528
306457666.2
9391.851662
983489602
6.886287688e+11
4.135290782e+14
3.930219183e+15
633355.1979
3017.929583
29.94001892
39.04426547
421.5878869
8955.241802
30619021.25
377587747.2
3.479480805e+10
4.960988809e+11
2128.934264
245353169.1
644064379.6
828406945.9
5.1745352e+13
0
38972060.44
9540.596796
1553316614
1.975110374e+12
68207.04562
4.814543979e+11
4.586057557e+13
9.265971815e+10
4382.225833
585865975.8
107143071.7
24.5946556
277.2415133
3690.428564
69680.23632
2676739.243
43.20893471
83.99984492
2306.787388
228.4889146
3206.776401
99894.5797
1.956907694e+11
5.25764759e+19
4788.744841
418.4856571
129.1750914
100359.7066
438353.7818
3782.114425
188027443.7
1.407464025e+11
2.035168991e+14
4.099487178e+15
654820.3622
3041.964009
11.45326132
23.17549629
448.771141
7855.213294
894974.4156
27764480.68
1037194082
5.252906312e+10
340.0903955
32649822.39
193430871.4
34764.27149
2318735714
0
41392505.84
246.333312
6068698.347
8706524572
52210.85968
4.229884553e+11
5.054933622e+13
9.462241076e+10
3846.893262
624952744.6
69622923.35
20.28846002
279.7006451
3019.438102
58386.54137
2654575.084
10.31953559
17.93716441
1825.932139
18.14899387
74.53774378
68905.69937
1.341632961e+11
5.154361351e+19
4873.245049
55.99226432
105.0770925
3617.045201
649.147591
1262.373269
41443602.54
6.428183853e+10
1.378269405e+14
4.039004215e+15
641698.0274
2934.424756
10.32403109
10.7500992
211.9346464
2322.418691
88274.04667
3052944.856
111598976.5
5100493724
279.0154702
4661923.469
65187201.72
481121239
3.271933255e+13
0
40603654.83
148.9497248
80552.7599
69059731.01
23049.82574
1.876164185e+11
5.173082631e+13
9.131983682e+10
2285.273939
627637650.4
60835031.98
24.78487233
265.1547885
2183.885434
31031.75241
2548435.861
4.048504809
23.4883453
1085.638931
6.365939283
37.29179439
40255.3242
7.85600673e+10
5.000226124e+19
4693.686499
6.383742527
65.97968764
316.5487645
24.39541659
494.1224772
10802737.78
2.313337907e+10
8.046337069e+13
3.893860936e+15
615910.302
2796.657056
9.67972274
6.152444521
134.9673101
67.30841714
4250.116623
272242.4294
24421346.62
2771836695
36.31250696
628385.1445
20518247.07
16609.06903
2501988606
0
38255140.71
105.074846
11033.51948
986556.3923
14337.61892
9.70967199e+10
5.104888995e+13
8.702664402e+10
1392.868793
610974840.9
57854321.94
23.41514676
244.1516805
1882.050503
14685.16022
2441690.769
1.8573964
38.31773044
571.9696231
7.622923459
15.63095771
19855.78422
3.909831788e+10
4.820814871e+19
4464.931171
4.241878234
166.7717608
84.27496835
9.215478763
523.5845134
2949739.144
5999095239
3.971176579e+13
3.722392667e+15
585673.6803
2657.106897
9.183741716
4.768330678
127.7547326
23.20538949
2283.583693
173336.9948
18728173.17
2082400794
28.21702778
100658.9866
7397198.961
65076987.75
2.081539382e+13
0
35410141.22
2839.667907
1825.811426
92964.10344
6836.670026
4.207634759e+10
4.947208578e+13
8.141475079e+10
931.9247001
585108346.1
55352390.91
12.83021827
221.5867254
1764.988391
8151.63777
2331995.438
1.034224478
22.66993929
320.1185181
2.927881239
16.14690098
11913.57304
2.384980123e+10
4.61639798e+19
4242.795129
3.73549147
197.3646335
36.72146744
14.15449587
1327.008364
833013.7033
2280459774
2.336018225e+13
3.539539299e+15
553817.4394
2521.275491
8.726558061
3.911948721
121.3651334
4.554932133
665.7132452
14105.78445
4457738.946
1929559173
23.79336173
48797.51117
2758692.616
2648.051163
208697371.9
0
32493406.29
2722.120226
316.0543026
6784.838924
4603.79451
2.567450897e+10
4.750484724e+13
7.445086078e+10
543.0250371
556124393.3
53034968.19
6.139291324
212.0361831
214.2042376
94.93128074
1967288.312
8.671465394
10.23393876
181.1982946
1.651184775
12.06294038
2354.314029
466398.4827
1.983881529e+16
1.590562069e+12
27769673.99
177.372125
25.61459365
9.472758997
12509.61853
59266.34579
31213990.57
2.833652464e+12
3.368994271e+15
523626.0215
2402.076663
8.301860365
3.184484691
115.5229731
2.371979361
592.3480476
6857.370482
3645800.257
1769853158
8.017942838
34232.92517
1168937.27
56447768.18
1.304192045e+13
0
29730933.31
2599.94141
57.49988975
690.6321318
4357.221497
2.987779283e+10
4.537465847e+13
5.915715098e+10
621.1376359
526055793.4
50482024.27
2.357754725
202.4161677
29.13347853
1681.679838
1765850.263
2.881585433
4.901359396
104.848671
1.013664289
3.058440816
85.27499911
118899.9214
9.052350643e+12
1.510920079e+12
26379313.39
61.13496142
17.88611771
16.90095397
9403.895108
4401.024671
90803570.62
4.288034813e+12
3.202376018e+15
494114.4835
2285.696838
7.900591624
2.909560742
109.8374624
1.853885379
552.0740257
126.6343515
275197.5584
1676591120
17205.80974
21801.90451
468617.9241
2470.221388
7102744.274
0
27179878.45
2472.797058
11.57301778
393.0572898
598.7305828
421252579.1
4.324977769e+13
4.896822929e+10
1926.219946
496418997.4
48137089.5
8544.987091
192.8621604
4.599127571
112.6697035
1465582.954
460.1016988
9.290735543
61.94237122
0.7401994954
9.29854915
14.80174322
93477.89679
861130360.2
9.99852523e+11
677810753.6
271093.0823
15.18124128
4.255026509
8869.669918
132.6770016
18510396.98
86547532.62
3.04647389e+15
8.403350963e+11
131538145.4
2715.205417
2.651515384
104.3932746
1.581979525
525.5331595
1478.327173
1655404.388
1592352261
13255.0286
15337.32477
249879.3321
59760287.19
8.833930346e+12
2.940487822e-247
24860218.74
2344.405981
3.028878119
127.1266124
1812.612025
1.161173228e+10
4.116136459e+13
3.975789188e+10
370.9714939
468388998
45775693.84
2804.197589
183.5636604
2.171969316
280.0715431
1229513.655
398.688002
8.893102829
37.49662535
0.5407840374
8.799256575
3.42745983
88947.83073
67259.06036
7.389640718e+11
858911591.7
420841.6117
11.73834468
1.638248561
8238.829634
9.176693436
4852384.87
1.83089451e+11
2.897799866e+15
7.961791214e+11
125112016.5
2580.328569
2.491593227
99.1649409
1.396361687
498.2898501
43.49238913
176706.905
1513953516
43994.97761
10579.06799
94488.54454
2551.638005
1251830623
4.512339607e-203
22756635.63
2223.017289
1.346909872
36.5036099
2284.970918
1.71808759e+10
3.912545368e+13
2.951496338e+10
456.1394179
441630676.6
43408286.88
474.1187258
174.4981593
3.15137618
614.8437899
1041259.13
371.6791222
7.264971489
23.25169583
0.445552396
8.33588887
4.32792954
84605.31826
216.2969321
6.068558936e+11
997731355.9
750224.1676
16.21947954
0.8679268276
7653.550442
2.899382704
21694393.96
5057041.694
2.752602616e+15
3.640591478e+12
4088636363
4556326.846
5061.716961
99.70323149
1.19674296
472.9005421
5.62035738
1356.648769
1438364075
724047.4479
7658.58976
47238.25143
29410765.98
4.91132355e+12
4.480769435e-167
20858192.92
2103.591267
1.048262387
15.97649607
1203.478773
6978448301
3.717845364e+13
2.740167297e+10
3615.763362
416100174.9
41338342.94
19323.3629
165.7622062
9.293933973
49.15365899
887964.4696
1685.954624
10.21917566
14.68094571
0.4648470101
7.632635136
2.886116385
80217.52522
318.8864812
8.190053864e+10
1146653020
3797937.502
106.6887105
0.7572963817
7099.858106
20.03339695
6349448.613
4067.176272
2.607524857e+15
1.008951292e+13
2.881122813e+10
72798358.94
168664.2078
458.4744057
1.554195481
448.2827654
1.902412528
20.03357698
1364977374
2609304.902
8160.52187
21392.59628
2545.420832
5661965
5.524772069e-140
19141063.61
1992.147218
0.9359158909
7.210393263
1626.39432
1.100035479e+10
3.531564404e+13
2.245270338e+10
226.7719634
392448615.9
39271015.73
9166.549771
157.4972428
4.050485157
5.958326065
761480.3894
2027.018122
10.87543739
9.498305755
0.4188356983
6.889242095
1.3569195
76153.20891
376.0026833
1.874601691e+10
1091003506
4917511.147
87.20391964
0.6653550197
6601.020695
26.75229859
2407121.543
2898.513744
2.472515162e+15
1.210789001e+13
3.9167155e+10
104937770
247114.3568
628.2523846
1.896260794
425.3800121
1.839700311
8.7967361
1296459058
2816465.42
6332.788171
10781.8669
4899118.959
3.227295949e+12
2.095626713e-117
17590480.25
1881.264354
0.8665888964
5.102560515
820.1412058
5507294034
3.353386951e+13
1.945995348e+10
249.926576
370120709.4
37286403.6
3381.323864
149.5880961
1.941957611
4.084828875
656220.2956
1946.205284
10.33052245
6.299709375
0.3891857895
6.470082932
0.9353780439
72332.80367
366.4592353
1.049862788e+10
1023216016
5051677.068
54.72925459
0.5596448702
6145.801934
28.4107641
1131401.926
2176.075878
2.344835468e+15
1.277929426e+13
4.427888403e+10
123906289.6
298428.1906
750.5536831
2.175002863
403.6161035
1.915626961
8.239738747
1231034011
3055167.715
5451.15775
5392.907643
1124.203249
558949870.1
2.11754148e-99
16185796.83
1776.173948
0.7544044559
4.176214933
786.0721283
5266906472
3.183392097e+13
1.704511999e+10
282.339921
349035096.1
35379483.95
1249.589083
142.0270713
1.090825806
181.337664
567834.1949
1847.478388
9.563233837
4.283808225
0.3708792414
6.074135386
26.45649635
68663.82239
2003.130938
9505322805
957636995.7
3900135.598
6.378187451
2.127364727
5730.969376
11726.33945
25111037.17
8.347579328e+11
2.223349182e+15
1.2118845e+13
4.203163316e+10
117589542.5
280832.0341
711.7531617
2.226049961
382.9594561
161.7462802
421556.9128
1168588147
2895555.429
4053.163234
3205.666601
2164611.022
2.997913124e+12
2.240171664e-84
14912201.05
2107.771793
0.7038111123
4.041340794
467.3562299
241122.3917
3.021141415e+13
2.004975321e+10
4869.439615
328727080.8
33629630.98
9110.149587
134.7531603
1.69458892
19.63334876
493654.4574
1889.829475
9.702666579
2.985953303
0.4098487008
6.594486825
8.63304757
65163.26746
423.7090909
4870324307
898633483.4
3741446.923
25.86996052
18.64080773
5338.955638
93.01164193
14578336.55
92743281.01
2.108242399e+15
1.174854044e+13
4.124065655e+10
116097077.8
276669.0045
704.1624379
2.085009364
363.2512753
9.543972328
4201.574797
1109208255
2899189.583
3384.949052
1564.497937
1817.412502
1922849.259
5.481711114e-72
13754552.15
2552.661244
0.6839151338
3.833521664
18.85479625
2407.19591
2.86555504e+13
2.738757212e+10
13873.62956
309190434.2
32039638.51
24711.85241
127.7224473
0.9417007721
3.569167197
431231.7732
2051.90224
10.45643652
2.134401988
0.3726831053
6.170172366
2.951225684
61803.43019
366.3814971
1557236234
843007212.1
3947295.242
46.41979805
15.51279172
4979.957292
27.1255271
9220489.148
14299.39227
1.998116162e+15
1.165102885e+13
4.172844468e+10
118049492.4
278892.2792
702.4431239
2.011858918
344.5413613
2.071501354
27807.56366
1052607102
2750521.527
2569.490357
1408.218476
8005607.781
2.137944619e+12
1.702411419e-61
12700522.01
2847.622093
0.6543303876
3.642093098
9.850216201
1283.347193
2.716890539e+13
3.156807408e+10
12701.40348
291239120.9
30483025.84
33984.82287
121.01795
0.6815801365
1.99430571
378385.1138
2065.119353
10.52946926
1.567799848
0.349768176
5.769094319
1.310304442
58631.2645
350.1087492
1226346457
791378492.3
3614753.336
5.403788394
4.603947393
4648.999035
841.9696072
5598126.724
2.754745555e+11
1.893451135e+15
1.104576822e+13
3.958414813e+10
111957773.7
262589.7957
665.7735626
1.964261494
326.6827104
14.43770313
102517.2772
998559962.7
2608355.636
1969.493739
498.2707949
1360.077083
1107314.208
1.285839263e-52
11738552.25
2697.142591
0.534279666
3.192965056
450.3989684
2014587918
2.575397518e+13
2.783439612e+10
206.6423027
275436902.5
28897028.53
12091.15743
114.6290414
0.5747373779
69.66939015
333230.0497
1958.213626
9.939812955
1.18438216
0.3345942924
5.439320709
10.06759352
55601.21662
437.9569813
1143078265
743488213
3318151.062
3.167381701
4.50503667
4342.097594
90.80581581
837420.9201
8.530262775e+10
1.794043905e+15
1.047099436e+13
3.75441007e+10
106159991.3
247292.0644
630.937967
1.845279334
309.6942877
4.249193747
50138.40603
947009024.5
2472854.519
1523.777963
298.8703026
137470.4212
1.768557298e+12
5.284887864e-45
10860217.97
2547.647212
0.4753801426
2.930871759
205.4271366
247593510.4
2.440918305e+13
2.626626448e+10
1245.470039
260340348.8
27397746.3
14596.42507
108.5960464
0.7011185449
10.8249399
294504.5776
1957.653083
10.17963258
0.9213228447
0.3519404335
5.266435491
5.025316919
52685.83661
354.070423
305186760.6
697648532.3
3641430.973
50.71700522
15.09325391
4054.513024
26.45022248
604000.2181
25109824.99
1.697813972e+15
1.125940139e+13
4.429693639e+10
133943168.5
329562.7997
827.1138568
2.280993456
293.3373087
2.080912813
623.2475062
897447855.3
2736644.231
2057.604975
174.659452
2381.094297
784859508.6
1.800363852e-38
10054175.92
2409.874758
0.4263587232
8.02241363
13738.31658
1.100207096e+10
2.309561215e+13
1.644548643e+10
524.5426816
245939908.8
25622964.07
1282.132256
102.6996752
0.7028539406
322.017644
260911.6584
1853.161197
9.433731
0.736207903
0.3312411487
4.881796328
66.71547833
49873.15296
448.4045525
234945587.9
654588551.1
2664316.626
5.54249823
3.830143249
3836.907766
68569.12014
101156164
7.939773617e+11
1.606751795e+15
1.066291434e+13
4.196951165e+10
126890074.8
310277.383
783.1615297
2.244490628
277.876776
37.13877776
160028.9402
850497310.7
2593332.803
1620.338649
125.5963931
341529.67
1.268683617e+12
9.128442223e-33
9313819.544
2278.252807
0.6455112238
54.07784524
69401.53178
2.270994818e+10
2.178297701e+13
7235920677
1090.446267
231927695.4
23116935.56
64.45054237
96.94718462
5.753746516
774.8569045
231472.3763
1748.961353
8.617773954
0.6079467383
0.4773380666
2.215279993
184.8388833
47042.75189
762.3005441
218564268.3
611250166.7
1419341.01
2.267518485
86.86347813
26192.96075
7153311.156
2321498289
3.66442603e+12
1.516865545e+15
1.007420012e+13
3.967312071e+10
119941805.6
291621.373
740.152935
2.53116618
264.9650948
1380.126755
982768.0147
805025425.2
2454459.911
1288.169051
3940.123754
11909017.56
2.218890063e+12
8.843748286e-28
8637059.457
2152.785738
3.876249119
18.04510439
28220.24583
1.318539712e+10
2.058305298e+13
4255730737
713.843618
218862963.4
21615597.25
7.848819686
91.64349388
33.32400899
418.6570292
206292.5825
1651.637453
8.136166511
0.5190207567
0.5955545887
2.362962146
97.63398175
44422.69988
605.5535525
205251907.5
572828652
968744.5283
1.995626391
16.14062474
7081.394127
1871658.678
955712640.8
2.247550991e+12
1.432975158e+15
9.523748657e+12
3.75211105e+10
113385374.3
274280.371
699.7608427
2.336346703
249.2308628
614.324959
641726.5518
761967215.6
2322268.021
1029.234946
365.6232162
1236291.879
2.109739579e+12
2.141066335e-23
8017486.855
2028.389692
3.940194625
5.49988891
2613.336864
3671465404
1.947013315e+13
3563950826
296.445072
206717449.6
20423744.76
3.529228876
86.73663511
26.78379104
118.1740351
184611.3709
1562.092785
7.739277635
0.4505103334
0.5278025131
1.981729535
24.87694786
42016.12728
387.7077434
193281538.4
538142381.8
833904.9633
1.652339823
4.492066471
3148.610088
89699.94706
127598328.4
7.897552999e+11
1.354842495e+15
9.01003229e+12
3.550808152e+10
107224537.3
258177.6154
661.8865726
2.043741896
235.2615144
108.8876938
263666.3587
721267506.5
2196887.252
830.2924079
66.84264131
290285.806
1.500756074e+12
1.608025255e-19
7447955.964
2675.268028
2.069538333
2.564371649
557.1977055
24849726.12
1.84007474e+13
1.648422421e+10
34433.01222
193588565.5
19501436.8
22677.79108
81.92906631
9.91295944
20.02820554
165965.3168
1724.426024
9.969784729
0.4035812582
0.4552504133
2.10613952
11.34945038
39688.38759
297.0073882
22616031.33
499240934.6
1530492.107
38.49821876
15.96982698
2883.205133
597.7566838
96897561.44
660360701.2
1.279668862e+15
9.932391949e+12
4.38820287e+10
143727565.8
370950.9843
930.6709625
2.479275688
222.4494969
8.109063651
4261.240897
682425859.8
2337072.313
1296.503249
20.75839959
1560.742052
384645463.9
4.440858343e-16
6923260.64
3347.048325
1.283797129
1.507724573
38.05208458
336359.3053
1.736810207e+13
3.043336947e+10
83861.145
180972403.5
18664904.53
48805.32074
77.34646911
3.107351402
3.939414588
150008.4326
1903.584496
12.995212
0.370740334
0.3785280003
1.930810429
5.601724155
37471.2616
323.7644038
1956499.988
455241195.3
2288019.605
52.79956952
11.05170337
2695.360823
29.27590863
72101732.94
669321.5504
1.207717159e+15
1.104559334e+13
5.581990816e+10
203776532.4
579723.8778
1490.728927
3.769259939
210.2699732
1.847586252
76.80614062
645347655.1
2558847.399
2069.246676
14.98874529
17.68777544
199118360.5
5.130586126e-13
6439275.086
3970.01431
1.189587838
1.313974099
4.996330864
9742.627565
1.637122699e+13
4.378184648e+10
136759.2237
169040001.6
17868713.42
73625.40676
72.9580485
1.325680606
1.562231223
136326.275
2043.755713
16.00805432
0.3480821092
0.3309538014
1.746335157
3.174318001
35375.31507
340.8304659
173677.9423
410680225.1
2801870.855
54.08870406
7.450652381
2521.165299
27.93477776
53374541.88
1011.081437
1.139702966e+15
1.163034672e+13
6.417239789e+10
251178193.1
757619.9869
2000.940701
5.002293139
198.7421799
1.543305283
5.290721906
610186543.2
2655796.351
2451.602581
11.0693718
2.576727417
158129447.3
2.900157011e-10
5992320.518
3975.132486
0.8991858129
1.233260089
2.489650151
594.3426135
1.543183881e+13
4.63269482e+10
65731.80985
158626961.9
16984344.34
81357.93926
68.62968464
0.909367037
1.147282319
124359.5457
2039.580702
16.96857421
0.3218491029
0.3001441144
1.576070524
1.958110798
33418.07524
327.9331063
24671.05424
370700446.6
2999517.341
44.09694413
5.314008623
2359.763004
28.50568093
39578331.96
148.5473413
1.075411795e+15
1.185538274e+13
6.986042459e+10
289266431.5
917240.8649
2505.808961
6.313308572
187.7989884
1.547271018
3.787662627
576752562.3
2733036.943
2827.000132
8.517488748
2.281828133
129308413.8
8.644324487e-08
5577612.368
3754.135342
0.6103328218
9.757539093
17431.29656
5408189780
1.453215604e+13
3.214996526e+10
661.0299485
149665936.2
15892158.73
9373.394209
64.43986814
0.8135792958
136.6041011
113589.8594
1925.098808
15.9690418
0.2907161128
0.2801061772
1.494217805
39.555727
31549.54996
306.627215
183359.6632
336044457
2555177.391
6.301197752
2.062324858
2244.961647
60210.07291
113319128.5
3.803600125e+11
1.014948908e+15
1.120138156e+13
6.602416296e+10
273282614.4
863344.9508
2367.288972
5.998611737
177.4813544
5.919790873
44473.55605
545170374.3
2583218.981
2361.207186
12.82649566
236393.2547
8.083541714e+11
1.501392092e-05
5193923.005
3538.880732
0.6079225171
20.25971235
30626.94549
6837788117
1.367690706e+13
2.174945417e+10
644.841636
141174706.8
14847623.95
1067.087784
60.65594123
1.723000626
183.7128501
103845.7817
1815.339129
15.02072696
0.2719006267
0.3305302243
5.060059475
54.70008197
29751.49184
286.9383029
480015.5884
305444804.7
2046847.819
1.827091109
6.463542921
3943.734988
1317750.971
960678214.5
1.064061899e+12
9.56844331e+14
1.05715472e+13
6.232887992e+10
257912608.7
811947.4371
2234.231952
5.773568186
167.6954567
170.7080204
276512.998
514933519.3
2439726.297
1983.336688
12.26858225
42827.35859
386376499.6
9.275435709e+13
4840257.85
3326.152745
1.031096374
7.528518331
200.2102647
348285492.5
1.288807081e+13
1.585104732e+10
138.3179216
133283521.6
13992960.65
962.4376655
57.16933049
2.993338504
17.47869064
95222.87955
1713.952688
14.15911484
0.2600533661
0.7029394257
13.27879815
7.213805009
28093.89581
269.4767178
92120.09821
278954259.7
1890095.515
1.163693953
4.588371934
1948.999685
31967.01661
86295542.02
3.08390619e+11
9.025177737e+14
9.981011021e+12
5.885831623e+10
243431924.5
763916.6327
2108.988064
5.395236597
158.2475067
40.73535875
132397.2059
486306893.7
2302861.631
1675.58733
6.178416583
22556.60263
222655566.5
1824963678
4512394.879
3172.775598
0.8303089746
2.13628991
490.9995941
171310502.7
1.214074666e+13
1.055573468e+10
5596.148501
125434240.3
13227858.19
3788.743721
53.86829809
1.288425218
8.487872363
87451.58407
1647.529042
13.94420911
0.2471183213
0.7031310575
12.6449006
5.69313393
26512.49483
267.2321885
2588.390852
255075296.9
1907872.069
24.63895033
13.29830656
1814.953628
220.1687069
69781052.41
870965697.3
8.508923149e+14
9.816198218e+12
5.997389621e+10
255502258.7
822936.6374
2307.768764
5.876728451
149.3606882
4.213656271
3144.913692
459112505.3
2267167.54
1771.289764
2.829704171
47.83802757
172389177.8
419796024.5
4208021.179
2985.388432
0.6751580492
1.156642358
154.5855756
343592836.5
1.143478235e+13
9759506415
72.60321703
118332150
12484187.2
3241.699076
50.75400189
0.8075536433
2.404663679
80429.95552
1569.237997
13.49403473
0.2341169086
0.5473820979
11.86629831
2.549537773
25014.18034
263.7145747
553.3976701
233411550.4
1943544.978
28.63263663
9.741055052
1700.075906
24.57315096
53202963.33
2862368.185
8.017271842e+14
9.828701254e+12
6.342347914e+10
283779529.6
957596.9227
2768.595791
7.159880064
140.9081976
1.471039925
81.65263678
433216687.6
2285860.65
2094.882082
2.489963904
22.69126209
138458073
219592784.3
3925424.643
2807.717417
0.5792089699
0.9628307683
80.28551858
204628620.2
1.076751627e+13
9073472856
35.30135068
111629376.8
11779423.62
2372.436908
47.80760665
0.6595068313
1.141136701
74055.40637
1487.4968
12.89419298
0.2218191203
0.4432580186
11.14992872
1.695537654
23599.76173
253.2209118
190.9134348
214112801.9
1901773.111
21.95292068
7.295721331
1593.058249
22.63273391
40027608.81
10986.76441
7.554197435e+14
9.547414388e+12
6.326755462e+10
289766137
998321.9903
2934.443033
7.664513171
132.9202109
1.27086534
4.756205839
408704760.8
2238217.081
2153.309767
2.18136812
21.37019124
114190298.5
137739729.5
3662178.527
2644.617693
0.5094985811
6.466322591
13985.44225
3553144190
1.012853745e+13
7214905493
434.9394927
105183691.2
11055141.52
429.305028
44.97227569
0.6332056731
87.69670576
68172.63284
1401.118658
12.13813178
0.2097294288
0.3820334775
10.23757637
33.50785153
22227.99041
237.168031
208916.4388
196625243.2
1612400.01
4.418719738
3.562190537
2455.68766
803307.1459
692647935.6
6.89711592e+11
7.111273381e+14
8.996366965e+12
5.962864397e+10
273026619.9
938224.6696
2765.156939
7.313185396
125.3603581
101.4210793
185226.2474
385364458.3
2110309.716
1855.900428
4.633393832
15521.11807
96086126.99
96091060.28
3418016.995
2719.175654
0.69007269
5.457608122
2140.420228
2908504156
9.525354484e+12
9839314259
23016.37612
98594885.39
10459892.64
6651.980338
42.30324637
1.539087738
25.46587131
62928.9515
1367.367172
12.48330519
0.2131690607
1.051203277
13.71395529
17.96194009
20932.5323
244.6549449
1822.032281
180004406.1
1648031.246
28.40990752
13.33660052
1397.182127
5471.459479
504703345.7
3470684201
6.69385005e+14
8.902896434e+12
6.15751286e+10
292244883.5
1036836.128
3115.858736
8.226457286
118.099789
8.424976157
5500.539234
363275642.4
2070723.737
1952.114718
1.692460302
39.53997223
82108871.89
71722015.18
3190726.846
2908.11377
0.9095639229
1.79560033
296.5604281
2441422672
8.944959001e+12
1.716759476e+10
101322.2357
92132462.98
9975730.002
22215.40478
39.88345249
0.8993741278
6.929181779
58263.1397
1408.291601
14.79123645
0.2303980395
0.8071769889
12.83321094
12.79433601
19678.82208
276.9790511
225.555708
158865896
1905182.799
70.38254051
6.834762998
1306.821377
57.11983622
307237939.4
19981791.64
6.290909501e+14
9.450663837e+12
7.32240164e+10
386323369.4
1522180.562
4947.394324
13.79842481
111.2060336
1.685315576
174.9431432
342144034
2186077.864
2868.50421
2.378336003
17.92735579
71032193.2
56047857.57
2978833.659
2736.043351
0.6245748483
0.9923614762
286.9088166
356086239.9
8.405247811e+12
1.564584947e+10
544.9452103
86721968.69
9396455.066
10237.84523
37.32484173
0.6951888857
2.302748741
54081.59985
1331.559209
14.08238765
0.2179830789
0.6374649897
12.06396962
2.737658511
18538.91853
260.2346379
82.01244449
141341480.2
1802962.089
18.14576203
3.72095631
1224.777723
21.56753166
191713896.7
131042.9317
5.920702493e+14
8.939110892e+12
6.947428911e+10
367231291.3
1446830.387
4720.106445
13.19683205
104.7765702
1.189561463
7.84968821
322367239.6
2073368.008
2589.77615
1.998654112
16.86194288
62081578.27
45255896.81
2781139.905
2573.257042
0.475417569
4.226562972
10061.08678
2350988971
7.89162068e+12
1.311677723e+10
361.763248
81599269.61
8818147.881
2323.166625
35.04948576
0.6370668692
55.54312121
50172.1254
1252.470553
13.24588032
0.2053558804
0.5254533357
11.0787118
27.56757902
17431.83821
243.2140776
108424.5225
126213464.4
1534185.222
4.320020703
6.12997596
3752.075157
1698534.724
1113479832
7.639399284e+11
5.562980504e+14
8.407111401e+12
6.535137268e+10
345361661
1357953.483
4439.628963
12.52436848
98.78080925
199.2310254
230667.3202
303431018.4
1951522.55
2268.741291
5.139207395
12302.32985
54707764.71
37439941.81
2597160.205
2416.356338
0.4234462064
4.006416749
2620.273364
1171163904
7.409983362e+12
1.167187373e+10
235.2172028
76774524.93
8287887.457
821.3006053
32.92385321
1.090573831
41.21316366
46573.39166
1177.785354
12.45489757
0.1998087335
1.237874996
13.32245181
23.53058714
16384.11952
227.6455898
151355.1088
113203359.9
1315931.447
1.552128236
8.743967034
4815.555646
2222124.18
1317420220
8.066019932e+11
5.224134728e+14
7.902277367e+12
6.143718956e+10
324574756.2
1274000.513
4173.604305
11.79913165
92.9903813
245.2615531
248323.9893
285469056.7
1835429.987
1994.549345
5.090477735
11655.45481
48538091.05
31554121.08
2425482.229
2269.031879
0.3636458194
2.685321401
3164.540318
1197377997
6.95600871e+12
1.044567896e+10
219.6553983
72216775.43
7789458.871
370.1274305
30.92701124
1.025437557
26.28669456
43263.61345
1107.540868
11.71355841
0.1936635927
1.911113612
15.07918586
9.289657857
15408.32778
213.7330688
61397.12411
102042587.9
1207295.202
0.9207779531
5.021173759
1033.503122
53661.39737
104260627.5
2.161574487e+11
4.909983608e+14
7.43343609e+12
5.779844929e+10
305198389.5
1196144.22
3925.820664
11.03042211
87.24758191
19.60885455
65936.81581
268607359.9
1725985.631
1760.042287
1.847663301
4896.00168
43314543.82
26984072.81
2265422.825
2328.54401
0.6170060971
3.492935022
863.9742082
1042349156
6.523618309e+12
1.377691146e+10
72364.29944
67547433.05
7378017.83
7586.490775
29.05701114
0.8522408725
14.49977598
40239.86485
1093.572591
12.51103484
0.2014923938
2.081702358
14.57041066
6.953950321
14467.68098
226.5596686
31288.84907
90274294.85
1277587.656