/*--------------------------------*- C++ -*----------------------------------*\
| =========                 |                                                 |
| \\      /  F ield         | OpenFOAM: The Open Source CFD Toolbox           |
|  \\    /   O peration     | Version:  5.x                                   |
|   \\  /    A nd           | Web:      www.OpenFOAM.org                      |
|    \\/     M anipulation  |                                                 |
\*---------------------------------------------------------------------------*/
FoamFile
{
    version     2.0;
    format      ascii;
    class       volScalarField;
    location    "0.01";
    object      rho;
}
// * * * * * * * * * * * * * * * * * * * * * * * * * * * * * * * * * * * * * //

dimensions      [1 -3 0 0 0 0 0];

internalField   nonuniform List<scalar> 
7950
(
0.02062936176
0.02062071743
0.0206016828
0.0205727098
0.02053381711
0.02048494975
0.02042601623
0.02035689812
0.02027745378
0.02018752033
0.02008691508
0.01997543682
0.01985286721
0.01971897226
0.01957350418
0.0194162035
0.0192468015
0.01906502325
0.01887059099
0.01866322816
0.01844266396
0.01820863867
0.01796090953
0.01769925743
0.01742349427
0.01713347102
0.0168290865
0.01651029663
0.01617712428
0.01582966932
0.01546811883
0.01509275716
0.01470397547
0.01430228054
0.01388830229
0.01346279975
0.01302666489
0.01258092404
0.01212673641
0.01166538937
0.0111982904
0.01072695535
0.01025299328
0.009778087884
0.009303975916
0.008832423168
0.008365198594
0.007904047421
0.007450664102
0.007006666027
0.01111138526
0.01110756434
0.01109916013
0.01108639402
0.01106930689
0.01104791809
0.01102224187
0.01099229162
0.01095808149
0.01091962728
0.010876947
0.01083006131
0.01077899401
0.01072377241
0.01066442781
0.01060099594
0.01053351743
0.01046203834
0.01038661066
0.0103072929
0.01022415061
0.010137257
0.01004669355
0.009952550635
0.009854928132
0.009753936081
0.009649695325
0.009542338149
0.009432008923
0.00931886474
0.009203076048
0.009084827266
0.00896431741
0.008841760699
0.008717387176
0.008591443339
0.008464192786
0.008335916926
0.008206915735
0.008077508637
0.007948035516
0.007818857943
0.007690360674
0.007562953519
0.007437073702
0.00731318886
0.007191800879
0.007073450827
0.0069587253
0.006848264638
0.00860304366
0.008601298323
0.008597460585
0.008591634427
0.008583842854
0.008574100455
0.008562420873
0.008548818691
0.008533310132
0.008515913385
0.00849664879
0.008475538973
0.008452608945
0.008427886197
0.008401400784
0.008373185411
0.008343275515
0.008311709352
0.008278528077
0.008243775834
0.008207499837
0.008169750455
0.008130581293
0.008090049275
0.008048214718
0.008005141406
0.007960896655
0.007915551378
0.007869180134
0.007821861175
0.007773676477
0.007724711762
0.007675056503
0.007624803914
0.007574050919
0.007522898099
0.007471449612
0.007419813084
0.007368099458
0.007316422808
0.007264900094
0.007213650864
0.007162796871
0.007112461613
0.007062769761
0.007013846452
0.006965816427
0.006918802976
0.006872926633
0.006828303585
0.007643250881
0.007642419702
0.007640592303
0.007637818825
0.007634111164
0.007629477512
0.007623925909
0.007617465125
0.007610104976
0.007601856464
0.007592731844
0.007582744664
0.007571909789
0.007560243414
0.007547763079
0.007534487674
0.007520437441
0.007505633985
0.007490100265
0.007473860598
0.007456940656
0.007439367455
0.00742116935
0.007402376024
0.007383018469
0.007363128967
0.00734274107
0.007321889569
0.007300610462
0.007278940915
0.007256919217
0.007234584729
0.007211977823
0.00718913982
0.007166112907
0.007142940062
0.007119664951
0.007096331829
0.007072985422
0.0070496708
0.007026433236
0.007003318055
0.006980370471
0.006957635404
0.006935157293
0.006912979891
0.006891146053
0.006869697512
0.006848674648
0.00682811626
0.007225102253
0.007224698042
0.007223809417
0.007222460913
0.007220658545
0.007218406599
0.007215709359
0.007212571527
0.007208998381
0.007204995826
0.007200570429
0.007195729427
0.007190480733
0.007184832931
0.007178795279
0.007172377695
0.007165590757
0.007158445685
0.007150954338
0.007143129198
0.007134983354
0.007126530491
0.007117784872
0.007108761316
0.007099475182
0.007089942348
0.007080179182
0.007070202522
0.007060029646
0.007049678242
0.00703916638
0.007028512474
0.007017735249
0.007006853702
0.006995887063
0.006984854751
0.006973776331
0.006962671466
0.00695155987
0.006940461254
0.006929395279
0.006918381498
0.006907439301
0.00689658786
0.00688584607
0.006875232495
0.006864765306
0.006854462228
0.006844340483
0.006834416736
0.007034545921
0.007034347166
0.007033910235
0.007033247227
0.007032361153
0.007031254193
0.007029928539
0.007028386607
0.007026631108
0.007024665072
0.007022491869
0.007020115201
0.007017539111
0.007014767976
0.007011806504
0.007008659727
0.007005332995
0.007001831968
0.006998162611
0.00699433118
0.006990344215
0.006986208529
0.006981931198
0.006977519547
0.006972981141
0.006968323768
0.006963555426
0.006958684313
0.006953718805
0.006948667444
0.006943538923
0.006938342066
0.006933085811
0.006927779194
0.006922431326
0.006917051379
0.006911648563
0.006906232108
0.006900811239
0.006895395164
0.006889993044
0.006884613977
0.006879266977
0.006873960952
0.006868704684
0.006863506804
0.006858375781
0.006853319893
0.006848347213
0.006843465589
0.006948208276
0.006948109931
0.006947893737
0.006947565689
0.00694712729
0.006946579632
0.00694592382
0.006945161071
0.006944292752
0.006943320388
0.006942245676
0.006941070479
0.006939796827
0.006938426918
0.006936963111
0.006935407927
0.00693376404
0.006932034277
0.00693022161
0.006928329154
0.006926360159
0.006924318005
0.006922206197
0.006920028356
0.006917788217
0.006915489616
0.006913136488
0.006910732857
0.006908282829
0.006905790585
0.006903260369
0.006900696485
0.006898103288
0.006895485169
0.006892846555
0.006890191893
0.006887525646
0.006884852282
0.006882176263
0.00687950204
0.006876834039
0.006874176656
0.006871534247
0.006868911117
0.006866311514
0.006863739617
0.006861199532
0.006858695278
0.006856230784
0.006853809879
0.006911673073
0.006911624231
0.006911516859
0.006911353937
0.006911136214
0.006910864236
0.006910538553
0.006910159777
0.006909728589
0.006909245754
0.006908712118
0.006908128612
0.006907496252
0.006906816134
0.006906089434
0.006905317409
0.006904501393
0.006903642792
0.006902743086
0.006901803823
0.006900826618
0.006899813149
0.006898765156
0.006897684434
0.006896572831
0.006895432249
0.006894264632
0.006893071971
0.006891856292
0.006890619659
0.006889364168
0.006888091938
0.006886805116
0.006885505864
0.006884196361
0.006882878795
0.006881555362
0.006880228258
0.006878899678
0.006877571809
0.006876246828
0.006874926896
0.006873614157
0.006872310728
0.0068710187
0.006869740133
0.006868477051
0.006867231436
0.006866005231
0.006864800328
0.006899463634
0.006899439322
0.006899385879
0.006899304787
0.006899196418
0.006899061045
0.006898898944
0.006898710417
0.006898495807
0.006898255494
0.006897989901
0.006897699492
0.006897384772
0.006897046289
0.006896684628
0.006896300417
0.006895894318
0.006895467033
0.006895019297
0.006894551882
0.00689406559
0.006893561257
0.006893039746
0.006892501951
0.006891948789
0.006891381205
0.006890800166
0.006890206657
0.006889601686
0.006888986276
0.006888361467
0.00688772831
0.006887087869
0.006886441216
0.006885789432
0.0068851336
0.006884474809
0.006883814148
0.006883152703
0.00688249156
0.006881831797
0.006881174486
0.00688052069
0.006879871458
0.006879227828
0.006878590823
0.006877961447
0.006877340685
0.006876729504
0.006876128844
0.006899277233
0.006899265117
0.006899238482
0.006899198067
0.006899144058
0.006899076591
0.006898995803
0.006898901846
0.00689879489
0.006898675124
0.00689854276
0.006898398028
0.006898241182
0.006898072493
0.006897892254
0.006897700776
0.006897498391
0.006897285448
0.006897062313
0.006896829371
0.006896587021
0.006896335679
0.006896075776
0.006895807756
0.006895532076
0.006895249205
0.006894959626
0.006894663829
0.006894362316
0.006894055594
0.006893744182
0.006893428603
0.006893109385
0.006892787063
0.006892462174
0.006892135256
0.006891806852
0.006891477503
0.006891147749
0.006890818131
0.006890489184
0.006890161444
0.006889835437
0.006889511687
0.006889190711
0.006888873017
0.006888559106
0.00688824947
0.006887944588
0.00688764493
0.006905077063
0.00690507102
0.006905057735
0.006905037578
0.006905010642
0.006904976993
0.0069049367
0.006904889839
0.006904836495
0.006904776762
0.006904710746
0.006904638561
0.006904560334
0.006904476201
0.006904386307
0.006904290808
0.006904189868
0.006904083663
0.006903972374
0.006903856193
0.00690373532
0.006903609961
0.006903480332
0.006903346653
0.006903209154
0.006903068067
0.006902923632
0.006902776095
0.006902625705
0.006902472716
0.006902317385
0.006902159973
0.006902000744
0.006901839964
0.006901677901
0.006901514822
0.006901350999
0.006901186701
0.006901022197
0.006900857756
0.006900693646
0.006900530134
0.006900367481
0.00690020595
0.006900045797
0.006899887277
0.006899730638
0.006899576127
0.006899423982
0.006899274438
0.006913876113
0.006913873098
0.006913866469
0.006913856412
0.006913842972
0.006913826183
0.006913806078
0.006913782697
0.006913756081
0.006913726277
0.006913693337
0.006913657321
0.006913618289
0.00691357631
0.006913531457
0.006913483806
0.006913433442
0.006913380449
0.00691332492
0.00691326695
0.006913206639
0.006913144089
0.006913079408
0.006913012706
0.006912944097
0.006912873698
0.006912801629
0.00691272801
0.006912652968
0.006912576628
0.006912499119
0.006912420571
0.006912341116
0.006912260886
0.006912180014
0.006912098635
0.006912016884
0.006911934894
0.006911852801
0.006911770738
0.00691168884
0.006911607238
0.006911526064
0.006911445448
0.006911365519
0.006911286403
0.006911208225
0.006911131107
0.006911055169
0.006910980528
0.006924190214
0.006924188709
0.006924185401
0.006924180382
0.006924173674
0.006924165295
0.006924155262
0.006924143593
0.00692413031
0.006924115435
0.006924098996
0.006924081021
0.006924061542
0.006924040591
0.006924018206
0.006923994426
0.00692396929
0.006923942843
0.00692391513
0.006923886198
0.006923856098
0.006923824881
0.0069237926
0.00692375931
0.006923725069
0.006923689934
0.006923653965
0.006923617223
0.00692357977
0.006923541669
0.006923502985
0.006923463782
0.006923424126
0.006923384083
0.00692334372
0.006923303103
0.0069232623
0.006923221378
0.006923180404
0.006923139444
0.006923098567
0.006923057837
0.00692301732
0.006922977082
0.006922937186
0.006922897696
0.006922858673
0.006922820179
0.006922782274
0.006922745015
0.006935280268
0.006935279517
0.006935277866
0.00693527536
0.006935272012
0.00693526783
0.006935262822
0.006935256998
0.006935250368
0.006935242944
0.006935234738
0.006935225766
0.006935216044
0.006935205586
0.006935194413
0.006935182544
0.006935169997
0.006935156797
0.006935142964
0.006935128523
0.006935113499
0.006935097918
0.006935081805
0.006935065189
0.006935048098
0.00693503056
0.006935012607
0.006934994267
0.006934975573
0.006934956555
0.006934937246
0.006934917678
0.006934897883
0.006934877896
0.006934857748
0.006934837474
0.006934817107
0.006934796681
0.006934776228
0.006934755783
0.006934735378
0.006934715047
0.006934694822
0.006934674737
0.006934654822
0.006934635109
0.00693461563
0.006934596415
0.006934577493
0.006934558894
0.006946777896
0.006946777521
0.006946776697
0.006946775446
0.006946773775
0.006946771687
0.006946769188
0.00694676628
0.006946762971
0.006946759265
0.006946755169
0.006946750691
0.006946745837
0.006946740617
0.00694673504
0.006946729115
0.006946722852
0.006946716263
0.006946709358
0.00694670215
0.00694669465
0.006946686872
0.00694667883
0.006946670535
0.006946662004
0.00694665325
0.006946644288
0.006946635133
0.006946625801
0.006946616308
0.006946606669
0.006946596901
0.006946587021
0.006946577043
0.006946566986
0.006946556866
0.006946546699
0.006946536502
0.006946526293
0.006946516087
0.006946505901
0.006946495752
0.006946485656
0.00694647563
0.006946465688
0.006946455848
0.006946446124
0.006946436532
0.006946427086
0.006946417802
0.006958499404
0.006958499217
0.006958498805
0.006958498181
0.006958497347
0.006958496304
0.006958495057
0.006958493605
0.006958491953
0.006958490103
0.006958488059
0.006958485823
0.0069584834
0.006958480795
0.006958478011
0.006958475053
0.006958471927
0.006958468637
0.006958465191
0.006958461592
0.006958457849
0.006958453966
0.006958449951
0.006958445811
0.006958441552
0.006958437182
0.006958432708
0.006958428138
0.00695842348
0.006958418741
0.006958413929
0.006958409053
0.006958404121
0.00695839914
0.00695839412
0.006958389068
0.006958383992
0.006958378902
0.006958373806
0.006958368711
0.006958363626
0.00695835856
0.00695835352
0.006958348515
0.006958343552
0.00695833864
0.006958333786
0.006958328997
0.006958324282
0.006958319647
0.00697035324
0.006970353147
0.006970352941
0.00697035263
0.006970352213
0.006970351693
0.00697035107
0.006970350346
0.006970349521
0.006970348597
0.006970347577
0.006970346461
0.006970345251
0.006970343951
0.006970342561
0.006970341084
0.006970339524
0.006970337882
0.006970336161
0.006970334365
0.006970332496
0.006970330558
0.006970328553
0.006970326486
0.00697032436
0.006970322179
0.006970319946
0.006970317664
0.006970315339
0.006970312973
0.006970310571
0.006970308137
0.006970305675
0.006970303188
0.006970300682
0.00697029816
0.006970295627
0.006970293085
0.006970290541
0.006970287998
0.00697028546
0.00697028293
0.006970280414
0.006970277916
0.006970275438
0.006970272986
0.006970270563
0.006970268172
0.006970265818
0.006970263504
0.006982293807
0.006982293761
0.006982293658
0.006982293503
0.006982293295
0.006982293035
0.006982292724
0.006982292362
0.006982291951
0.00698229149
0.00698229098
0.006982290423
0.006982289819
0.00698228917
0.006982288476
0.006982287739
0.00698228696
0.00698228614
0.006982285281
0.006982284385
0.006982283452
0.006982282484
0.006982281484
0.006982280452
0.006982279391
0.006982278302
0.006982277187
0.006982276048
0.006982274887
0.006982273706
0.006982272507
0.006982271292
0.006982270063
0.006982268822
0.006982267571
0.006982266312
0.006982265047
0.006982263779
0.006982262508
0.006982261239
0.006982259972
0.006982258709
0.006982257453
0.006982256206
0.00698225497
0.006982253745
0.006982252536
0.006982251343
0.006982250168
0.006982249013
0.006994298458
0.006994298435
0.006994298384
0.006994298306
0.006994298202
0.006994298073
0.006994297918
0.006994297737
0.006994297532
0.006994297301
0.006994297047
0.006994296769
0.006994296468
0.006994296143
0.006994295797
0.006994295429
0.00699429504
0.006994294631
0.006994294202
0.006994293755
0.006994293289
0.006994292806
0.006994292306
0.006994291791
0.006994291262
0.006994290718
0.006994290161
0.006994289593
0.006994289013
0.006994288424
0.006994287825
0.006994287219
0.006994286605
0.006994285985
0.006994285361
0.006994284732
0.006994284101
0.006994283468
0.006994282834
0.0069942822
0.006994281568
0.006994280937
0.00699428031
0.006994279688
0.00699427907
0.006994278459
0.006994277855
0.00699427726
0.006994276673
0.006994276097
0.007006355992
0.00700635598
0.007006355954
0.007006355916
0.007006355864
0.007006355799
0.007006355722
0.007006355631
0.007006355529
0.007006355414
0.007006355287
0.007006355148
0.007006354998
0.007006354836
0.007006354663
0.007006354479
0.007006354285
0.007006354081
0.007006353867
0.007006353643
0.007006353411
0.00700635317
0.00700635292
0.007006352663
0.007006352399
0.007006352127
0.00700635185
0.007006351566
0.007006351276
0.007006350982
0.007006350683
0.007006350381
0.007006350074
0.007006349765
0.007006349453
0.007006349139
0.007006348824
0.007006348508
0.007006348192
0.007006347875
0.007006347559
0.007006347245
0.007006346932
0.007006346621
0.007006346313
0.007006346008
0.007006345706
0.007006345409
0.007006345116
0.007006344828
0.007018460927
0.007018460921
0.007018460909
0.007018460889
0.007018460863
0.007018460831
0.007018460792
0.007018460747
0.007018460696
0.007018460639
0.007018460575
0.007018460506
0.007018460431
0.00701846035
0.007018460264
0.007018460172
0.007018460075
0.007018459973
0.007018459866
0.007018459755
0.007018459639
0.007018459518
0.007018459394
0.007018459266
0.007018459134
0.007018458998
0.007018458859
0.007018458718
0.007018458573
0.007018458426
0.007018458277
0.007018458126
0.007018457973
0.007018457819
0.007018457663
0.007018457506
0.007018457349
0.007018457191
0.007018457033
0.007018456875
0.007018456718
0.00701845656
0.007018456404
0.007018456249
0.007018456095
0.007018455943
0.007018455792
0.007018455644
0.007018455498
0.007018455354
0.007030610637
0.007030610634
0.007030610627
0.007030610618
0.007030610605
0.007030610589
0.007030610569
0.007030610547
0.007030610521
0.007030610493
0.007030610461
0.007030610426
0.007030610389
0.007030610348
0.007030610305
0.00703061026
0.007030610211
0.00703061016
0.007030610107
0.007030610051
0.007030609993
0.007030609933
0.007030609871
0.007030609807
0.007030609741
0.007030609673
0.007030609604
0.007030609533
0.007030609461
0.007030609388
0.007030609313
0.007030609238
0.007030609162
0.007030609085
0.007030609007
0.007030608929
0.00703060885
0.007030608771
0.007030608692
0.007030608613
0.007030608535
0.007030608456
0.007030608378
0.007030608301
0.007030608224
0.007030608148
0.007030608073
0.007030607999
0.007030607926
0.007030607854
0.007042803919
0.007042803918
0.007042803915
0.00704280391
0.007042803904
0.007042803895
0.007042803886
0.007042803875
0.007042803862
0.007042803848
0.007042803832
0.007042803814
0.007042803796
0.007042803776
0.007042803754
0.007042803731
0.007042803707
0.007042803682
0.007042803655
0.007042803627
0.007042803598
0.007042803568
0.007042803537
0.007042803505
0.007042803472
0.007042803438
0.007042803404
0.007042803369
0.007042803333
0.007042803296
0.007042803259
0.007042803221
0.007042803183
0.007042803144
0.007042803106
0.007042803066
0.007042803027
0.007042802988
0.007042802948
0.007042802909
0.00704280287
0.007042802831
0.007042802792
0.007042802753
0.007042802715
0.007042802677
0.007042802639
0.007042802602
0.007042802565
0.00704280253
0.007055040286
0.007055040285
0.007055040284
0.007055040281
0.007055040278
0.007055040274
0.007055040269
0.007055040264
0.007055040257
0.00705504025
0.007055040242
0.007055040234
0.007055040224
0.007055040214
0.007055040204
0.007055040192
0.00705504018
0.007055040167
0.007055040154
0.00705504014
0.007055040126
0.007055040111
0.007055040095
0.007055040079
0.007055040063
0.007055040046
0.007055040029
0.007055040011
0.007055039993
0.007055039975
0.007055039956
0.007055039937
0.007055039918
0.007055039899
0.00705503988
0.00705503986
0.007055039841
0.007055039821
0.007055039801
0.007055039781
0.007055039762
0.007055039742
0.007055039723
0.007055039703
0.007055039684
0.007055039665
0.007055039646
0.007055039628
0.007055039609
0.007055039591
0.007067319605
0.007067319604
0.007067319604
0.007067319602
0.007067319601
0.007067319599
0.007067319596
0.007067319594
0.00706731959
0.007067319587
0.007067319583
0.007067319579
0.007067319574
0.007067319569
0.007067319564
0.007067319558
0.007067319552
0.007067319546
0.007067319539
0.007067319532
0.007067319525
0.007067319517
0.00706731951
0.007067319502
0.007067319493
0.007067319485
0.007067319476
0.007067319468
0.007067319459
0.00706731945
0.00706731944
0.007067319431
0.007067319422
0.007067319412
0.007067319402
0.007067319393
0.007067319383
0.007067319373
0.007067319363
0.007067319354
0.007067319344
0.007067319334
0.007067319325
0.007067319315
0.007067319306
0.007067319296
0.007067319287
0.007067319278
0.007067319269
0.00706731926
0.007079641921
0.00707964192
0.00707964192
0.007079641919
0.007079641919
0.007079641918
0.007079641916
0.007079641915
0.007079641913
0.007079641912
0.00707964191
0.007079641908
0.007079641905
0.007079641903
0.0070796419
0.007079641897
0.007079641894
0.007079641891
0.007079641888
0.007079641884
0.007079641881
0.007079641877
0.007079641873
0.007079641869
0.007079641865
0.007079641861
0.007079641857
0.007079641852
0.007079641848
0.007079641843
0.007079641839
0.007079641834
0.007079641829
0.007079641825
0.00707964182
0.007079641815
0.00707964181
0.007079641805
0.0070796418
0.007079641795
0.007079641791
0.007079641786
0.007079641781
0.007079641776
0.007079641771
0.007079641767
0.007079641762
0.007079641757
0.007079641753
0.007079641749
0.00709200737
0.00709200737
0.00709200737
0.00709200737
0.007092007369
0.007092007369
0.007092007368
0.007092007367
0.007092007367
0.007092007366
0.007092007365
0.007092007364
0.007092007362
0.007092007361
0.00709200736
0.007092007358
0.007092007357
0.007092007355
0.007092007354
0.007092007352
0.00709200735
0.007092007348
0.007092007346
0.007092007344
0.007092007342
0.00709200734
0.007092007338
0.007092007336
0.007092007334
0.007092007331
0.007092007329
0.007092007327
0.007092007324
0.007092007322
0.00709200732
0.007092007317
0.007092007315
0.007092007312
0.00709200731
0.007092007308
0.007092007305
0.007092007303
0.0070920073
0.007092007298
0.007092007296
0.007092007293
0.007092007291
0.007092007289
0.007092007286
0.007092007284
0.007104416135
0.007104416135
0.007104416135
0.007104416135
0.007104416135
0.007104416135
0.007104416134
0.007104416134
0.007104416133
0.007104416133
0.007104416133
0.007104416132
0.007104416131
0.007104416131
0.00710441613
0.007104416129
0.007104416129
0.007104416128
0.007104416127
0.007104416126
0.007104416125
0.007104416124
0.007104416123
0.007104416122
0.007104416121
0.00710441612
0.007104416119
0.007104416118
0.007104416117
0.007104416116
0.007104416115
0.007104416114
0.007104416112
0.007104416111
0.00710441611
0.007104416109
0.007104416107
0.007104416106
0.007104416105
0.007104416104
0.007104416103
0.007104416101
0.0071044161
0.007104416099
0.007104416098
0.007104416097
0.007104416095
0.007104416094
0.007104416093
0.007104416092
0.007116868422
0.007116868422
0.007116868422
0.007116868422
0.007116868422
0.007116868421
0.007116868421
0.007116868421
0.007116868421
0.007116868421
0.00711686842
0.00711686842
0.00711686842
0.00711686842
0.007116868419
0.007116868419
0.007116868418
0.007116868418
0.007116868418
0.007116868417
0.007116868417
0.007116868416
0.007116868416
0.007116868415
0.007116868415
0.007116868414
0.007116868414
0.007116868413
0.007116868413
0.007116868412
0.007116868411
0.007116868411
0.00711686841
0.00711686841
0.007116868409
0.007116868408
0.007116868408
0.007116868407
0.007116868406
0.007116868406
0.007116868405
0.007116868404
0.007116868404
0.007116868403
0.007116868403
0.007116868402
0.007116868401
0.007116868401
0.0071168684
0.0071168684
0.007129364448
0.007129364448
0.007129364448
0.007129364448
0.007129364448
0.007129364448
0.007129364448
0.007129364448
0.007129364448
0.007129364447
0.007129364447
0.007129364447
0.007129364447
0.007129364447
0.007129364447
0.007129364447
0.007129364446
0.007129364446
0.007129364446
0.007129364446
0.007129364445
0.007129364445
0.007129364445
0.007129364445
0.007129364444
0.007129364444
0.007129364444
0.007129364444
0.007129364443
0.007129364443
0.007129364443
0.007129364442
0.007129364442
0.007129364442
0.007129364441
0.007129364441
0.007129364441
0.00712936444
0.00712936444
0.00712936444
0.007129364439
0.007129364439
0.007129364439
0.007129364438
0.007129364438
0.007129364437
0.007129364437
0.007129364437
0.007129364436
0.007129364436
0.007141904439
0.007141904439
0.007141904439
0.007141904439
0.007141904439
0.007141904439
0.007141904439
0.007141904439
0.007141904439
0.007141904439
0.007141904439
0.007141904439
0.007141904439
0.007141904439
0.007141904439
0.007141904439
0.007141904438
0.007141904438
0.007141904438
0.007141904438
0.007141904438
0.007141904438
0.007141904438
0.007141904438
0.007141904438
0.007141904438
0.007141904437
0.007141904437
0.007141904437
0.007141904437
0.007141904437
0.007141904437
0.007141904437
0.007141904437
0.007141904436
0.007141904436
0.007141904436
0.007141904436
0.007141904436
0.007141904436
0.007141904436
0.007141904436
0.007141904436
0.007141904436
0.007141904436
0.007141904436
0.007141904435
0.007141904435
0.007141904435
0.007141904435
0.007154488625
0.007154488625
0.007154488625
0.007154488624
0.007154488624
0.007154488624
0.007154488624
0.007154488624
0.007154488624
0.007154488624
0.007154488624
0.007154488624
0.007154488624
0.007154488624
0.007154488624
0.007154488624
0.007154488624
0.007154488624
0.007154488624
0.007154488624
0.007154488624
0.007154488624
0.007154488624
0.007154488624
0.007154488624
0.007154488624
0.007154488624
0.007154488624
0.007154488624
0.007154488624
0.007154488624
0.007154488623
0.007154488623
0.007154488623
0.007154488623
0.007154488623
0.007154488623
0.007154488623
0.007154488623
0.007154488623
0.007154488623
0.007154488623
0.007154488623
0.007154488623
0.007154488623
0.007154488623
0.007154488623
0.007154488623
0.007154488623
0.007154488623
0.007167117237
0.007167117237
0.007167117237
0.007167117237
0.007167117237
0.007167117237
0.007167117237
0.007167117237
0.007167117237
0.007167117237
0.007167117237
0.007167117237
0.007167117237
0.007167117237
0.007167117236
0.007167117236
0.007167117236
0.007167117236
0.007167117236
0.007167117236
0.007167117236
0.007167117236
0.007167117236
0.007167117236
0.007167117236
0.007167117236
0.007167117236
0.007167117236
0.007167117236
0.007167117236
0.007167117236
0.007167117236
0.007167117236
0.007167117236
0.007167117236
0.007167117236
0.007167117236
0.007167117236
0.007167117236
0.007167117236
0.007167117236
0.007167117236
0.007167117236
0.007167117236
0.007167117236
0.007167117236
0.007167117236
0.007167117236
0.007167117236
0.007167117236
0.007179790511
0.007179790511
0.007179790511
0.007179790511
0.007179790511
0.007179790511
0.007179790511
0.007179790511
0.007179790511
0.007179790511
0.007179790511
0.007179790511
0.007179790511
0.00717979051
0.00717979051
0.00717979051
0.00717979051
0.00717979051
0.00717979051
0.00717979051
0.00717979051
0.00717979051
0.00717979051
0.00717979051
0.00717979051
0.00717979051
0.00717979051
0.00717979051
0.00717979051
0.00717979051
0.00717979051
0.00717979051
0.00717979051
0.00717979051
0.00717979051
0.00717979051
0.00717979051
0.00717979051
0.00717979051
0.00717979051
0.00717979051
0.00717979051
0.00717979051
0.00717979051
0.00717979051
0.00717979051
0.00717979051
0.00717979051
0.00717979051
0.00717979051
0.007192508684
0.007192508684
0.007192508684
0.007192508684
0.007192508684
0.007192508684
0.007192508684
0.007192508683
0.007192508683
0.007192508683
0.007192508683
0.007192508683
0.007192508683
0.007192508683
0.007192508683
0.007192508683
0.007192508683
0.007192508683
0.007192508683
0.007192508683
0.007192508683
0.007192508683
0.007192508683
0.007192508683
0.007192508683
0.007192508683
0.007192508683
0.007192508683
0.007192508683
0.007192508683
0.007192508683
0.007192508683
0.007192508683
0.007192508683
0.007192508683
0.007192508683
0.007192508683
0.007192508683
0.007192508683
0.007192508683
0.007192508683
0.007192508683
0.007192508683
0.007192508683
0.007192508683
0.007192508683
0.007192508683
0.007192508683
0.007192508683
0.007192508683
0.007205271994
0.007205271994
0.007205271994
0.007205271994
0.007205271994
0.007205271994
0.007205271994
0.007205271994
0.007205271994
0.007205271994
0.007205271994
0.007205271994
0.007205271994
0.007205271994
0.007205271994
0.007205271994
0.007205271994
0.007205271994
0.007205271994
0.007205271994
0.007205271994
0.007205271994
0.007205271994
0.007205271994
0.007205271994
0.007205271994
0.007205271994
0.007205271994
0.007205271994
0.007205271994
0.007205271994
0.007205271994
0.007205271994
0.007205271994
0.007205271994
0.007205271994
0.007205271994
0.007205271994
0.007205271994
0.007205271994
0.007205271994
0.007205271994
0.007205271994
0.007205271994
0.007205271994
0.007205271994
0.007205271993
0.007205271993
0.007205271993
0.007205271993
0.007218080684
0.007218080684
0.007218080684
0.007218080684
0.007218080684
0.007218080684
0.007218080684
0.007218080684
0.007218080684
0.007218080684
0.007218080684
0.007218080684
0.007218080684
0.007218080684
0.007218080684
0.007218080684
0.007218080684
0.007218080684
0.007218080684
0.007218080684
0.007218080684
0.007218080684
0.007218080684
0.007218080684
0.007218080684
0.007218080684
0.007218080684
0.007218080684
0.007218080684
0.007218080684
0.007218080684
0.007218080684
0.007218080684
0.007218080684
0.007218080684
0.007218080684
0.007218080684
0.007218080684
0.007218080683
0.007218080683
0.007218080683
0.007218080683
0.007218080683
0.007218080683
0.007218080683
0.007218080683
0.007218080683
0.007218080683
0.007218080683
0.007218080682
0.007230934995
0.007230934995
0.007230934995
0.007230934995
0.007230934995
0.007230934995
0.007230934995
0.007230934995
0.007230934995
0.007230934995
0.007230934995
0.007230934995
0.007230934995
0.007230934995
0.007230934995
0.007230934995
0.007230934995
0.007230934995
0.007230934995
0.007230934995
0.007230934995
0.007230934995
0.007230934995
0.007230934995
0.007230934995
0.007230934995
0.007230934995
0.007230934995
0.007230934995
0.007230934995
0.007230934995
0.007230934995
0.007230934995
0.007230934995
0.007230934995
0.007230934995
0.007230934995
0.007230934995
0.007230934995
0.007230934995
0.007230934995
0.007230934996
0.007230934996
0.007230934996
0.007230934996
0.007230934996
0.007230934996
0.007230934996
0.007230934996
0.007230934996
0.00724383517
0.00724383517
0.00724383517
0.00724383517
0.00724383517
0.00724383517
0.00724383517
0.00724383517
0.00724383517
0.00724383517
0.00724383517
0.00724383517
0.00724383517
0.00724383517
0.00724383517
0.00724383517
0.007243835171
0.007243835171
0.007243835171
0.007243835171
0.007243835171
0.007243835171
0.007243835171
0.007243835171
0.007243835171
0.007243835171
0.007243835171
0.007243835171
0.007243835171
0.007243835171
0.007243835171
0.007243835171
0.007243835171
0.007243835171
0.007243835171
0.007243835171
0.007243835171
0.007243835171
0.007243835171
0.007243835171
0.007243835171
0.007243835171
0.007243835171
0.007243835171
0.007243835171
0.007243835171
0.007243835171
0.007243835171
0.007243835171
0.007243835171
0.007256781457
0.007256781457
0.007256781457
0.007256781457
0.007256781457
0.007256781457
0.007256781457
0.007256781457
0.007256781457
0.007256781457
0.007256781457