/*--------------------------------*- C++ -*----------------------------------*\
| =========                 |                                                 |
| \\      /  F ield         | OpenFOAM: The Open Source CFD Toolbox           |
|  \\    /   O peration     | Version:  5.x                                   |
|   \\  /    A nd           | Web:      www.OpenFOAM.org                      |
|    \\/     M anipulation  |                                                 |
\*---------------------------------------------------------------------------*/
FoamFile
{
    version     2.0;
    format      ascii;
    class       volScalarField;
    location    "0.01";
    object      sigma;
}
// * * * * * * * * * * * * * * * * * * * * * * * * * * * * * * * * * * * * * //

dimensions      [1 0 -2 0 0 0 0];

internalField   nonuniform List<scalar> 
7950
(
0.8302242627
0.8301748904
0.8300660276
0.8298999386
0.8296762476
0.8293939833
0.829051779
0.8286479122
0.8281803067
0.8276465216
0.8270437316
0.8263687028
0.8256177633
0.8247867685
0.8238710617
0.8228654291
0.8217640489
0.8205604337
0.8192473661
0.8178168251
0.8162599054
0.8145667248
0.8127263218
0.8107265406
0.8085539016
0.8061934569
0.8036286286
0.8008410269
0.7978102471
0.7945136416
0.7909260645
0.7870195857
0.7827631697
0.7781223155
0.7730586537
0.7675294926
0.7614873106
0.754879185
0.7476461518
0.7397224852
0.73103489
0.721501592
0.7110313173
0.699522144
0.6868602101
0.6729182617
0.6575540179
0.6406083315
0.6219031186
0.6012390266
0.7293379565
0.7292627383
0.7290971121
0.7288450429
0.7285067444
0.7280818049
0.7275695073
0.7269689093
0.7262788704
0.7254980644
0.7246249843
0.7236579454
0.722595087
0.7214343743
0.7201735991
0.7188103823
0.7173421763
0.7157662682
0.7140797845
0.7122796971
0.7103628312
0.7083258747
0.7061653913
0.7038778355
0.7014595717
0.6989068973
0.6962160711
0.693383347
0.6904050146
0.6872774476
0.6839971614
0.6805608811
0.6769656214
0.6732087812
0.6692882543
0.6652025582
0.6609509856
0.6565337801
0.6519523405
0.6472094587
0.6423095952
0.6372591972
0.6320670683
0.6267447937
0.6213072321
0.6157730825
0.6101655365
0.60451303
0.5988501073
0.5932184137
0.6655838784
0.6655265718
0.6654004812
0.6652088449
0.6649521547
0.6646305391
0.6642440085
0.6637925192
0.6632759965
0.6626943476
0.6620474693
0.6613352543
0.6605575973
0.6597144005
0.6588055803
0.6578310732
0.6567908435
0.655684891
0.6545132591
0.6532760441
0.6519734056
0.6506055766
0.6491728758
0.6476757198
0.6461146365
0.6444902801
0.642803446
0.6410550873
0.6392463325
0.6373785031
0.6354531331
0.6334719889
0.6314370892
0.6293507265
0.627215488
0.6250342764
0.6228103308
0.620547246
0.6182489913
0.6159199259
0.6135648121
0.6111888243
0.6087975526
0.6063969994
0.6039935676
0.6015940378
0.5992055329
0.5968354652
0.5944914646
0.592181282
0.6301197945
0.6300852223
0.6300091867
0.6298937165
0.6297392217
0.6295459307
0.6293140383
0.6290437435
0.6287352634
0.6283888403
0.6280047453
0.6275832817
0.6271247877
0.6266296383
0.6260982478
0.6255310723
0.6249286123
0.6242914145
0.6236200752
0.6229152424
0.6221776188
0.6214079644
0.6206070992
0.6197759064
0.6189153348
0.6180264016
0.617110195
0.6161678769
0.615200685
0.614209935
0.6131970225
0.6121634244
0.6111106999
0.6100404913
0.608954524
0.607854606
0.6067426264
0.6056205538
0.6044904327
0.6033543802
0.6022145808
0.60107328
0.5999327775
0.5987954181
0.5976635823
0.5965396746
0.5954261112
0.5943253065
0.5932396578
0.59217153
0.6117226579
0.6117038437
0.6116624748
0.6115996773
0.6115157075
0.6114107336
0.6112849161
0.6111384281
0.6109714624
0.6107842346
0.6105769853
0.6103499804
0.6101035126
0.6098379014
0.6095534936
0.609250664
0.6089298152
0.6085913785
0.6082358137
0.6078636095
0.6074752837
0.6070713833
0.6066524844
0.6062191926
0.6057721423
0.6053119973
0.60483945
0.6043552211
0.6038600595
0.6033547412
0.6028400689
0.6023168713
0.6017860013
0.6012483358
0.6007047735
0.600156234
0.5996036554
0.599047993
0.598490217
0.5979313096
0.5973722635
0.5968140785
0.5962577586
0.5957043096
0.595154735
0.5946100334
0.594071195
0.5935391976
0.5930150036
0.5924995564
0.6026133655
0.6026036067
0.6025821514
0.6025495896
0.6025060631
0.6024516705
0.6023865094
0.6023106866
0.6022243212
0.6021275469
0.602020512
0.6019033803
0.6017763306
0.6016395574
0.6014932703
0.6013376942
0.6011730693
0.6009996503
0.6008177071
0.6006275238
0.6004293988
0.6002236444
0.6000105866
0.5997905646
0.5995639305
0.5993310485
0.5990922951
0.598848058
0.5985987357
0.5983447371
0.5980864806
0.5978243934
0.597558911
0.5972904762
0.5970195384
0.5967465527
0.5964719788
0.5961962806
0.5959199245
0.5956433787
0.5953671124
0.5950915943
0.5948172916
0.5945446692
0.5942741879
0.5940063038
0.5937414671
0.5934801205
0.5932226987
0.5929696268
0.5983216293
0.5983166798
0.5983057989
0.5982892872
0.5982672187
0.5982396463
0.598206623
0.5981682072
0.5981244639
0.5980754663
0.5980212953
0.5979620402
0.5978977982
0.5978286747
0.5977547832
0.5976762448
0.5975931885
0.5975057508
0.5974140757
0.597318314
0.5972186237
0.5971151696
0.5970081226
0.59689766
0.596783965
0.5966672262
0.5965476378
0.5964253987
0.5963007125
0.5961737871
0.596044834
0.5959140687
0.5957817093
0.595647977
0.595513095
0.5953772884
0.5952407838
0.5951038086
0.5949665908
0.5948293585
0.5946923391
0.5945557593
0.5944198443
0.5942848176
0.5941509001
0.5940183101
0.5938872625
0.5937579685
0.5936306351
0.5935054646
0.5964732281
0.596470744
0.5964652829
0.5964569962
0.5964459214
0.5964320859
0.5964155171
0.5963962452
0.5963743041
0.5963497316
0.5963225698
0.5962928648
0.5962606671
0.5962260311
0.5961890154
0.5961496824
0.5961080985
0.596064334
0.5960184626
0.5959705616
0.5959207118
0.5958689971
0.5958155048
0.5957603249
0.5957035502
0.5956452764
0.5955856014
0.5955246255
0.5954624512
0.5953991826
0.595334926
0.5952697888
0.59520388
0.5951373096
0.5950701885
0.5950026284
0.5949347413
0.5948666397
0.5947984361
0.5947302426
0.5946621712
0.5945943332
0.5945268389
0.5944597978
0.5943933181
0.5943275063
0.5942624675
0.5941983047
0.594135119
0.594073009
0.595851159
0.5958499182
0.5958471904
0.5958430513
0.5958375198
0.5958306097
0.5958223349
0.5958127107
0.5958017542
0.5957894848
0.5957759236
0.5957610941
0.5957450219
0.5957277344
0.5957092614
0.5956896343
0.5956688868
0.5956470542
0.5956241737
0.5956002844
0.595575427
0.5955496436
0.595522978
0.5954954756
0.5954671829
0.5954381478
0.5954084194
0.5953780479
0.5953470844
0.595315581
0.5952835908
0.5952511672
0.5952183645
0.5951852375
0.5951518413
0.5951182314
0.5950844633
0.5950505929
0.5950166758
0.5949827677
0.5949489238
0.5949151993
0.5948816487
0.594848326
0.5948152847
0.5947825773
0.5947502557
0.5947183708
0.5946869723
0.5946561088
0.5958416474
0.5958410289
0.5958396694
0.5958376065
0.5958348496
0.5958314057
0.5958272818
0.5958224855
0.5958170255
0.5958109114
0.5958041538
0.5957967646
0.5957887565
0.5957801433
0.59577094
0.5957611622
0.5957508269
0.5957399517
0.5957285554
0.5957166573
0.5957042779
0.5956914382
0.5956781602
0.5956644665
0.5956503803
0.5956359255
0.5956211267
0.5956060088
0.5955905974
0.5955749185
0.5955589983
0.5955428637
0.5955265415
0.5955100591
0.5954934438
0.5954767232
0.595459925
0.5954430768
0.5954262063
0.5954093411
0.5953925087
0.5953757364
0.5953590513
0.5953424801
0.5953260493
0.5953097851
0.595293713
0.5952778584
0.5952622458
0.5952468994
0.5961374391
0.5961371312
0.5961364542
0.5961354271
0.5961340545
0.5961323398
0.5961302865
0.5961278985
0.5961251801
0.596122136
0.5961187717
0.5961150929
0.5961111062
0.5961068183
0.5961022367
0.5960973693
0.5960922245
0.5960868111
0.5960811384
0.5960752162
0.5960690545
0.596062664
0.5960560556
0.5960492404
0.5960422302
0.5960350367
0.5960276723
0.5960201494
0.5960124807
0.5960046791
0.5959967578
0.5959887299
0.595980609
0.5959724087
0.5959641424
0.5959558241
0.5959474673
0.5959390859
0.5959306936
0.5959223041
0.5959139311
0.5959055882
0.5958972888
0.5958890462
0.5958808736
0.5958727839
0.5958647898
0.595856904
0.5958491386
0.5958415056
0.5965852443
0.5965850911
0.5965847542
0.596584243
0.5965835599
0.5965827065
0.5965816846
0.5965804962
0.5965791433
0.5965776284
0.5965759541
0.5965741233
0.5965721393
0.5965700055
0.5965677255
0.5965653033
0.5965627431
0.5965600492
0.5965572264
0.5965542794
0.5965512134
0.5965480335
0.5965447452
0.5965413541
0.596537866
0.5965342868
0.5965306226
0.5965268795
0.596523064
0.5965191824
0.5965152413
0.5965112473
0.596507207
0.5965031273
0.5964990148
0.5964948765
0.596490719
0.5964865494
0.5964823745
0.5964782009
0.5964740356
0.5964698853
0.5964657567
0.5964616564
0.5964575909
0.5964535667
0.5964495901
0.5964456673
0.5964418044
0.5964380074
0.5971087042
0.597108628
0.5971084604
0.597108206
0.5971078661
0.5971074415
0.597106933
0.5971063417
0.5971056685
0.5971049147
0.5971040816
0.5971031707
0.5971021835
0.5971011218
0.5970999874
0.5970987822
0.5970975083
0.597096168
0.5970947635
0.5970932972
0.5970917717
0.5970901896
0.5970885535
0.5970868664
0.5970851309
0.5970833502
0.5970815271
0.5970796649
0.5970777666
0.5970758354
0.5970738747
0.5970718876
0.5970698776
0.5970678479
0.5970658019
0.5970637431
0.5970616748
0.5970596005
0.5970575235
0.5970554472
0.5970533751
0.5970513104
0.5970492564
0.5970472166
0.5970451941
0.5970431922
0.5970412139
0.5970392624
0.5970373408
0.5970354519
0.5976698085
0.5976697706
0.5976696872
0.5976695606
0.5976693915
0.5976691802
0.5976689273
0.5976686331
0.5976682981
0.5976679231
0.5976675086
0.5976670554
0.5976665643
0.597666036
0.5976654716
0.597664872
0.5976642382
0.5976635714
0.5976628726
0.5976621431
0.5976613841
0.597660597
0.597659783
0.5976589436
0.5976580802
0.5976571943
0.5976562873
0.5976553608
0.5976544164
0.5976534557
0.5976524802
0.5976514916
0.5976504916
0.5976494818
0.597648464
0.5976474397
0.5976464108
0.5976453788
0.5976443455
0.5976433126
0.5976422817
0.5976412545
0.5976402327
0.5976392179
0.5976382118
0.5976372158
0.5976362316
0.5976352608
0.5976343048
0.5976333651
0.5982496422
0.5982496233
0.5982495818
0.5982495189
0.5982494347
0.5982493296
0.5982492038
0.5982490574
0.5982488908
0.5982487042
0.598248498
0.5982482725
0.5982480281
0.5982477653
0.5982474845
0.5982471862
0.5982468709
0.5982465391
0.5982461915
0.5982458286
0.598245451
0.5982450594
0.5982446544
0.5982442368
0.5982438073
0.5982433665
0.5982429153
0.5982424544
0.5982419845
0.5982415065
0.5982410212
0.5982405294
0.5982400319
0.5982395296
0.5982390232
0.5982385136
0.5982380017
0.5982374883
0.5982369742
0.5982364604
0.5982359475
0.5982354365
0.5982349282
0.5982344233
0.5982339227
0.5982334273
0.5982329376
0.5982324547
0.5982319791
0.5982315116
0.598838794
0.5988387846
0.598838764
0.5988387327
0.5988386908
0.5988386385
0.5988385759
0.5988385031
0.5988384202
0.5988383274
0.5988382248
0.5988381126
0.598837991
0.5988378603
0.5988377206
0.5988375722
0.5988374153
0.5988372503
0.5988370773
0.5988368967
0.5988367089
0.5988365141
0.5988363126
0.5988361048
0.5988358911
0.5988356719
0.5988354474
0.5988352181
0.5988349843
0.5988347465
0.5988345051
0.5988342604
0.5988340129
0.598833763
0.598833511
0.5988332575
0.5988330029
0.5988327475
0.5988324917
0.5988322361
0.5988319809
0.5988317267
0.5988314738
0.5988312226
0.5988309736
0.5988307271
0.5988304835
0.5988302432
0.5988300066
0.598829774
0.5994325817
0.599432577
0.5994325668
0.5994325512
0.5994325304
0.5994325043
0.5994324732
0.599432437
0.5994323957
0.5994323495
0.5994322985
0.5994322427
0.5994321822
0.5994321172
0.5994320477
0.5994319738
0.5994318958
0.5994318137
0.5994317276
0.5994316378
0.5994315443
0.5994314474
0.5994313472
0.5994312438
0.5994311375
0.5994310284
0.5994309167
0.5994308027
0.5994306864
0.5994305681
0.599430448
0.5994303262
0.5994302031
0.5994300788
0.5994299534
0.5994298273
0.5994297006
0.5994295735
0.5994294463
0.5994293191
0.5994291922
0.5994290657
0.5994289399
0.5994288149
0.599428691
0.5994285684
0.5994284472
0.5994283277
0.5994282099
0.5994280942
0.6000286757
0.6000286734
0.6000286683
0.6000286605
0.6000286502
0.6000286372
0.6000286217
0.6000286037
0.6000285832
0.6000285602
0.6000285348
0.6000285071
0.600028477
0.6000284446
0.60002841
0.6000283733
0.6000283345
0.6000282936
0.6000282508
0.6000282061
0.6000281596
0.6000281114
0.6000280616
0.6000280101
0.6000279572
0.600027903
0.6000278474
0.6000277907
0.6000277328
0.600027674
0.6000276142
0.6000275536
0.6000274924
0.6000274305
0.6000273682
0.6000273054
0.6000272424
0.6000271792
0.6000271159
0.6000270526
0.6000269895
0.6000269266
0.600026864
0.6000268018
0.6000267402
0.6000266792
0.6000266189
0.6000265594
0.6000265009
0.6000264433
0.6006259171
0.600625916
0.6006259134
0.6006259096
0.6006259044
0.600625898
0.6006258903
0.6006258813
0.6006258711
0.6006258597
0.600625847
0.6006258332
0.6006258182
0.6006258021
0.6006257849
0.6006257667
0.6006257474
0.600625727
0.6006257057
0.6006256835
0.6006256604
0.6006256364
0.6006256116
0.600625586
0.6006255597
0.6006255327
0.600625505
0.6006254768
0.600625448
0.6006254187
0.600625389
0.6006253589
0.6006253284
0.6006252976
0.6006252666
0.6006252354
0.6006252041
0.6006251726
0.6006251411
0.6006251096
0.6006250782
0.6006250469
0.6006250158
0.6006249849
0.6006249542
0.6006249239
0.6006248939
0.6006248643
0.6006248351
0.6006248065
0.6012237293
0.6012237288
0.6012237275
0.6012237256
0.601223723
0.6012237198
0.601223716
0.6012237115
0.6012237064
0.6012237007
0.6012236945
0.6012236876
0.6012236801
0.6012236721
0.6012236636
0.6012236545
0.6012236449
0.6012236348
0.6012236242
0.6012236131
0.6012236016
0.6012235897
0.6012235773
0.6012235646
0.6012235515
0.6012235381
0.6012235243
0.6012235103
0.601223496
0.6012234814
0.6012234666
0.6012234516
0.6012234365
0.6012234211
0.6012234057
0.6012233902
0.6012233746
0.6012233589
0.6012233433
0.6012233276
0.601223312
0.6012232964
0.6012232809
0.6012232655
0.6012232503
0.6012232352
0.6012232203
0.6012232055
0.601223191
0.6012231768
0.6018218255
0.6018218252
0.6018218246
0.6018218237
0.6018218224
0.6018218208
0.6018218189
0.6018218167
0.6018218141
0.6018218113
0.6018218082
0.6018218048
0.601821801
0.6018217971
0.6018217928
0.6018217883
0.6018217835
0.6018217785
0.6018217732
0.6018217677
0.601821762
0.601821756
0.6018217499
0.6018217436
0.6018217371
0.6018217304
0.6018217235
0.6018217165
0.6018217094
0.6018217022
0.6018216948
0.6018216874
0.6018216798
0.6018216722
0.6018216645
0.6018216568
0.601821649
0.6018216412
0.6018216335
0.6018216257
0.6018216179
0.6018216101
0.6018216024
0.6018215948
0.6018215872
0.6018215797
0.6018215723
0.6018215649
0.6018215577
0.6018215506
0.602420063
0.6024200629
0.6024200625
0.6024200621
0.6024200614
0.6024200606
0.6024200597
0.6024200586
0.6024200573
0.6024200559
0.6024200544
0.6024200527
0.6024200508
0.6024200488
0.6024200467
0.6024200445
0.6024200421
0.6024200396
0.602420037
0.6024200342
0.6024200314
0.6024200284
0.6024200254
0.6024200222
0.602420019
0.6024200157
0.6024200122
0.6024200088
0.6024200052
0.6024200016
0.602419998
0.6024199942
0.6024199905
0.6024199867
0.6024199829
0.602419979
0.6024199752
0.6024199713
0.6024199674
0.6024199636
0.6024199597
0.6024199558
0.602419952
0.6024199482
0.6024199444
0.6024199407
0.602419937
0.6024199333
0.6024199297
0.6024199262
0.6030183708
0.6030183707
0.6030183705
0.6030183703
0.60301837
0.6030183696
0.6030183691
0.6030183686
0.6030183679
0.6030183672
0.6030183665
0.6030183656
0.6030183647
0.6030183637
0.6030183627
0.6030183615
0.6030183604
0.6030183591
0.6030183578
0.6030183564
0.603018355
0.6030183536
0.603018352
0.6030183505
0.6030183489
0.6030183472
0.6030183455
0.6030183438
0.603018342
0.6030183402
0.6030183384
0.6030183365
0.6030183347
0.6030183328
0.6030183309
0.603018329
0.6030183271
0.6030183251
0.6030183232
0.6030183213
0.6030183193
0.6030183174
0.6030183155
0.6030183136
0.6030183117
0.6030183099
0.603018308
0.6030183062
0.6030183044
0.6030183027
0.6036167135
0.6036167135
0.6036167134
0.6036167133
0.6036167131
0.6036167129
0.6036167127
0.6036167124
0.6036167121
0.6036167118
0.6036167114
0.6036167109
0.6036167105
0.60361671
0.6036167095
0.6036167089
0.6036167083
0.6036167077
0.6036167071
0.6036167064
0.6036167057
0.6036167049
0.6036167042
0.6036167034
0.6036167026
0.6036167018
0.6036167009
0.6036167001
0.6036166992
0.6036166983
0.6036166974
0.6036166965
0.6036166955
0.6036166946
0.6036166937
0.6036166927
0.6036166918
0.6036166908
0.6036166898
0.6036166889
0.6036166879
0.6036166869
0.603616686
0.603616685
0.6036166841
0.6036166832
0.6036166823
0.6036166814
0.6036166805
0.6036166796
0.6042150737
0.6042150736
0.6042150736
0.6042150735
0.6042150735
0.6042150734
0.6042150732
0.6042150731
0.604215073
0.6042150728
0.6042150726
0.6042150724
0.6042150722
0.6042150719
0.6042150717
0.6042150714
0.6042150711
0.6042150708
0.6042150705
0.6042150701
0.6042150698
0.6042150694
0.604215069
0.6042150686
0.6042150682
0.6042150678
0.6042150674
0.604215067
0.6042150666
0.6042150661
0.6042150657
0.6042150652
0.6042150647
0.6042150643
0.6042150638
0.6042150633
0.6042150629
0.6042150624
0.6042150619
0.6042150614
0.604215061
0.6042150605
0.60421506
0.6042150596
0.6042150591
0.6042150586
0.6042150582
0.6042150578
0.6042150573
0.6042150569
0.6048134425
0.6048134424
0.6048134424
0.6048134424
0.6048134424
0.6048134423
0.6048134422
0.6048134422
0.6048134421
0.604813442
0.6048134419
0.6048134418
0.6048134417
0.6048134416
0.6048134415
0.6048134413
0.6048134412
0.604813441
0.6048134409
0.6048134407
0.6048134405
0.6048134403
0.6048134402
0.60481344
0.6048134398
0.6048134396
0.6048134394
0.6048134391
0.6048134389
0.6048134387
0.6048134385
0.6048134383
0.604813438
0.6048134378
0.6048134376
0.6048134373
0.6048134371
0.6048134369
0.6048134366
0.6048134364
0.6048134361
0.6048134359
0.6048134357
0.6048134354
0.6048134352
0.604813435
0.6048134348
0.6048134345
0.6048134343
0.6048134341
0.6054118155
0.6054118155
0.6054118155
0.6054118155
0.6054118155
0.6054118155
0.6054118154
0.6054118154
0.6054118154
0.6054118153
0.6054118153
0.6054118152
0.6054118152
0.6054118151
0.605411815
0.605411815
0.6054118149
0.6054118148
0.6054118148
0.6054118147
0.6054118146
0.6054118145
0.6054118144
0.6054118143
0.6054118142
0.6054118141
0.605411814
0.6054118139
0.6054118138
0.6054118137
0.6054118136
0.6054118135
0.6054118133
0.6054118132
0.6054118131
0.605411813
0.6054118129
0.6054118128
0.6054118126
0.6054118125
0.6054118124
0.6054118123
0.6054118122
0.6054118121
0.6054118119
0.6054118118
0.6054118117
0.6054118116
0.6054118115
0.6054118114
0.6060101908
0.6060101908
0.6060101908
0.6060101908
0.6060101908
0.6060101907
0.6060101907
0.6060101907
0.6060101907
0.6060101907
0.6060101906
0.6060101906
0.6060101906
0.6060101906
0.6060101905
0.6060101905
0.6060101905
0.6060101904
0.6060101904
0.6060101903
0.6060101903
0.6060101902
0.6060101902
0.6060101902
0.6060101901
0.6060101901
0.60601019
0.60601019
0.6060101899
0.6060101898
0.6060101898
0.6060101897
0.6060101897
0.6060101896
0.6060101896
0.6060101895
0.6060101894
0.6060101894
0.6060101893
0.6060101893
0.6060101892
0.6060101891
0.6060101891
0.606010189
0.606010189
0.6060101889
0.6060101889
0.6060101888
0.6060101887
0.6060101887
0.6066085671
0.6066085671
0.6066085671
0.6066085671
0.6066085671
0.6066085671
0.6066085671
0.606608567
0.606608567
0.606608567
0.606608567
0.606608567
0.606608567
0.606608567
0.606608567
0.6066085669
0.6066085669
0.6066085669
0.6066085669
0.6066085669
0.6066085668
0.6066085668
0.6066085668
0.6066085668
0.6066085667
0.6066085667
0.6066085667
0.6066085667
0.6066085666
0.6066085666
0.6066085666
0.6066085665
0.6066085665
0.6066085665
0.6066085665
0.6066085664
0.6066085664
0.6066085664
0.6066085663
0.6066085663
0.6066085663
0.6066085662
0.6066085662
0.6066085662
0.6066085662
0.6066085661
0.6066085661
0.6066085661
0.606608566
0.606608566
0.6072069439
0.6072069439
0.6072069439
0.6072069439
0.6072069439
0.6072069439
0.6072069439
0.6072069439
0.6072069439
0.6072069439
0.6072069439
0.6072069439
0.6072069439
0.6072069439
0.6072069439
0.6072069438
0.6072069438
0.6072069438
0.6072069438
0.6072069438
0.6072069438
0.6072069438
0.6072069438
0.6072069438
0.6072069437
0.6072069437
0.6072069437
0.6072069437
0.6072069437
0.6072069437
0.6072069437
0.6072069436
0.6072069436
0.6072069436
0.6072069436
0.6072069436
0.6072069436
0.6072069435
0.6072069435
0.6072069435
0.6072069435
0.6072069435
0.6072069435
0.6072069434
0.6072069434
0.6072069434
0.6072069434
0.6072069434
0.6072069434
0.6072069433
0.607805321
0.607805321
0.607805321
0.607805321
0.607805321
0.607805321
0.607805321
0.607805321
0.607805321
0.607805321
0.607805321
0.607805321
0.607805321
0.607805321
0.607805321
0.607805321
0.607805321
0.607805321
0.607805321
0.607805321
0.607805321
0.607805321
0.607805321
0.607805321
0.607805321
0.6078053209
0.6078053209
0.6078053209
0.6078053209
0.6078053209
0.6078053209
0.6078053209
0.6078053209
0.6078053209
0.6078053209
0.6078053209
0.6078053209
0.6078053209
0.6078053209
0.6078053209
0.6078053209
0.6078053209
0.6078053209
0.6078053209
0.6078053209
0.6078053209
0.6078053209
0.6078053208
0.6078053208
0.6078053208
0.6084036983
0.6084036983
0.6084036983
0.6084036983
0.6084036983
0.6084036983
0.6084036983
0.6084036983
0.6084036983
0.6084036983
0.6084036983
0.6084036983
0.6084036983
0.6084036983
0.6084036983
0.6084036982
0.6084036982
0.6084036982
0.6084036982
0.6084036982
0.6084036982
0.6084036982
0.6084036982
0.6084036982
0.6084036982
0.6084036982
0.6084036982
0.6084036982
0.6084036982
0.6084036982
0.6084036982
0.6084036982
0.6084036982
0.6084036982
0.6084036982
0.6084036982
0.6084036982
0.6084036982
0.6084036982
0.6084036982
0.6084036982
0.6084036982
0.6084036982
0.6084036982
0.6084036982
0.6084036982
0.6084036982
0.6084036982
0.6084036982
0.6084036982
0.6090020756
0.6090020756
0.6090020756
0.6090020756
0.6090020756
0.6090020756
0.6090020756
0.6090020755
0.6090020755
0.6090020755
0.6090020755
0.6090020755
0.6090020755
0.6090020755
0.6090020755
0.6090020755
0.6090020755
0.6090020755
0.6090020755
0.6090020755
0.6090020755
0.6090020755
0.6090020755
0.6090020755
0.6090020755
0.6090020755
0.6090020755
0.6090020755
0.6090020755
0.6090020755
0.6090020755
0.6090020755
0.6090020755
0.6090020755
0.6090020755
0.6090020755
0.6090020755
0.6090020755
0.6090020755
0.6090020755
0.6090020755
0.6090020755
0.6090020755
0.6090020755
0.6090020755
0.6090020755
0.6090020755
0.6090020755
0.6090020755
0.6090020755
0.6096004529
0.6096004529
0.6096004529
0.6096004529
0.6096004529
0.6096004529
0.6096004529
0.6096004529
0.6096004529
0.6096004529
0.6096004529
0.6096004529
0.6096004529
0.6096004529
0.6096004529
0.6096004529
0.6096004529
0.6096004529
0.6096004529
0.6096004529
0.6096004529
0.6096004529
0.6096004529
0.6096004529
0.6096004529
0.6096004529
0.6096004529
0.6096004529
0.6096004529
0.6096004529
0.6096004529
0.6096004528
0.6096004528
0.6096004528
0.6096004528
0.6096004528
0.6096004528
0.6096004528
0.6096004528
0.6096004528
0.6096004528
0.6096004528
0.6096004528
0.6096004528
0.6096004528
0.6096004528
0.6096004528
0.6096004528
0.6096004528
0.6096004528
0.6101988302
0.6101988302
0.6101988302
0.6101988302
0.6101988302
0.6101988302
0.6101988302
0.6101988302
0.6101988302
0.6101988302
0.6101988302
0.6101988302
0.6101988302
0.6101988302
0.6101988302
0.6101988302
0.6101988302
0.6101988302
0.6101988302
0.6101988302
0.6101988302
0.6101988302
0.6101988302
0.6101988302
0.6101988302
0.6101988302
0.6101988302
0.6101988302
0.6101988302
0.6101988302
0.6101988302
0.6101988302
0.6101988302
0.6101988302
0.6101988302
0.6101988302
0.6101988302
0.6101988302
0.6101988302
0.6101988302
0.6101988302
0.6101988302
0.6101988302
0.6101988302
0.6101988302
0.6101988302
0.6101988302
0.6101988302
0.6101988302
0.6101988302
0.6107972075
0.6107972075
0.6107972075
0.6107972075
0.6107972075
0.6107972075
0.6107972075
0.6107972075
0.6107972075
0.6107972075
0.6107972075
0.6107972075
0.6107972075
0.6107972075
0.6107972075
0.6107972075
0.6107972075
0.6107972075
0.6107972075
0.6107972075
0.6107972075
0.6107972075
0.6107972075
0.6107972075
0.6107972075
0.6107972075
0.6107972075
0.6107972075
0.6107972075
0.6107972075
0.6107972075
0.6107972075
0.6107972075
0.6107972075
0.6107972075
0.6107972075
0.6107972075
0.6107972075
0.6107972075
0.6107972075
0.6107972075
0.6107972075
0.6107972075
0.6107972075
0.6107972075
0.6107972075
0.6107972075
0.6107972075
0.6107972075
0.6107972075
0.6113955849
0.6113955849
0.6113955849
0.6113955849
0.6113955849
0.6113955849
0.6113955849
0.6113955849
0.6113955849
0.6113955849
0.6113955849
0.6113955849
0.6113955849
0.6113955849
0.6113955849
0.6113955849
0.6113955849
0.6113955849
0.6113955849
0.6113955849
0.6113955849
0.6113955849
0.6113955849
0.6113955849
0.6113955849
0.6113955849
0.6113955849
0.6113955849
0.6113955849
0.6113955849
0.6113955849
0.6113955849
0.6113955849
0.6113955849
0.6113955849
0.6113955849
0.6113955849
0.6113955849
0.6113955849
0.6113955849
0.6113955849
0.6113955849
0.6113955849
0.6113955849
0.6113955849
0.6113955848
0.6113955848
0.6113955848
0.6113955848
0.6113955848
0.6119939623
0.6119939623
0.6119939623
0.6119939623
0.6119939623
0.6119939623
0.6119939623
0.6119939623
0.6119939623
0.6119939623
0.6119939623
0.6119939623
0.6119939623
0.6119939623
0.6119939623
0.6119939623
0.6119939623
0.6119939623
0.6119939623
0.6119939623
0.6119939623
0.6119939623
0.6119939623
0.6119939623
0.6119939623
0.6119939623
0.6119939623
0.6119939623
0.6119939623
0.6119939623
0.6119939623
0.6119939623
0.6119939623
0.6119939623
0.6119939623
0.6119939623
0.6119939623
0.6119939623
0.6119939623
0.6119939623
0.6119939623
0.6119939623
0.6119939623
0.6119939623
0.6119939623
0.6119939623
0.6119939623
0.6119939623
0.6119939623
0.6119939623
0.6125923396
0.6125923396
0.6125923396
0.6125923396
0.6125923396
0.6125923396
0.6125923396
0.6125923396
0.6125923396
0.6125923396
0.6125923396
0.6125923396
0.6125923396
0.6125923396
0.6125923396
0.6125923396
0.6125923396
0.6125923396
0.6125923396
0.6125923396
0.6125923396
0.6125923396
0.6125923396
0.6125923396
0.6125923396
0.6125923396
0.6125923396
0.6125923396
0.6125923396
0.6125923396
0.6125923396
0.6125923396
0.6125923396
0.6125923397
0.6125923397
0.6125923397
0.6125923397
0.6125923397
0.6125923397
0.6125923397
0.6125923397
0.6125923397
0.6125923397
0.6125923397
0.6125923397
0.6125923397
0.6125923397
0.6125923397
0.6125923397
0.6125923397
0.613190717
0.613190717
0.613190717
0.613190717
0.613190717
0.613190717
0.613190717
0.613190717
0.613190717
0.613190717
0.613190717
0.613190717
0.613190717
0.613190717
0.613190717
0.613190717
0.613190717
0.613190717
0.613190717
0.613190717
0.613190717
0.613190717
0.613190717
0.613190717
0.613190717
0.613190717
0.613190717
0.613190717
0.613190717
0.613190717
0.613190717
0.613190717
0.613190717
0.613190717
0.613190717
0.613190717
0.613190717
0.613190717
0.613190717
0.613190717
0.613190717
0.613190717
0.613190717
0.613190717
0.613190717
0.613190717
0.613190717
0.613190717
0.613190717
0.613190717
0.6137890943
0.6137890943
0.6137890943
0.6137890943
0.6137890943
0.6137890943
0.6137890943
0.6137890943
0.6137890943
0.6137890943
0.6137890943
0.6137890943
0.6137890943
0.6137890943
0.6137890943
0.6137890943
0.6137890943
0.6137890943
0.6137890943
0.6137890943
0.6137890943
0.6137890943
0.6137890943
0.6137890943
0.6137890943
0.6137890943
0.6137890943
0.6137890943
0.6137890943
0.6137890943
0.6137890943
0.6137890943
0.6137890943
0.6137890943
0.6137890943
0.6137890943
0.6137890943
0.6137890943
0.6137890943
0.6137890943
0.6137890943
0.6137890943
0.6137890943
0.6137890943
0.6137890943
0.6137890943
0.6137890943
0.6137890943
0.6137890943
0.6137890943
0.6143874717
0.6143874717
0.6143874717
0.6143874717
0.6143874717
0.6143874717
0.6143874717
0.6143874717
0.6143874717
0.6143874717
0.6143874717
0.6143874717
0.6143874717
0.6143874717
0.6143874717
0.6143874717
0.6143874717
0.6143874717
0.6143874717
0.6143874717
0.6143874717
0.6143874717
0.6143874717
0.6143874717
0.6143874717
0.6143874717
0.6143874717
0.6143874717
0.6143874717
0.6143874717
0.6143874717
0.6143874717
0.6143874717
0.6143874717
0.6143874717
0.6143874717
0.6143874717
0.6143874717
0.6143874717
0.6143874717
0.6143874717
0.6143874717
0.6143874717
0.6143874717
0.6143874717
0.6143874717
0.6143874717
0.6143874717
0.6143874717
0.6143874717
0.614985849
0.614985849
0.614985849
0.614985849
0.614985849
0.614985849
0.614985849
0.614985849
0.614985849
0.614985849
0.614985849
0.614985849
0.614985849
0.614985849
0.614985849
0.614985849
0.614985849
0.614985849
0.614985849
0.614985849
0.614985849
0.614985849
0.614985849
0.614985849
0.614985849
0.614985849
0.614985849
0.614985849
0.614985849
0.614985849
0.614985849
0.614985849
0.614985849
0.614985849
0.614985849
0.614985849
0.614985849
0.614985849
0.614985849
0.614985849
0.614985849
0.614985849
0.614985849
0.614985849
0.614985849
0.614985849
0.614985849
0.614985849
0.614985849
0.614985849
0.6155842264
0.6155842264
0.6155842264
0.6155842264
0.6155842264
0.6155842264
0.6155842264
0.6155842264
0.6155842264
0.6155842264
0.6155842264
0.6155842264
0.6155842264
0.6155842264
0.6155842264
0.6155842264
0.6155842264
0.6155842264
0.6155842264
0.6155842264
0.6155842264
0.6155842264
0.6155842264
0.6155842264
0.6155842264
0.6155842264
0.6155842264
0.6155842264
0.6155842264
0.6155842264
0.6155842264
0.6155842264
0.6155842264
0.6155842264
0.6155842264
0.6155842264
0.6155842264
0.6155842264
0.6155842264
0.6155842264
0.6155842264
0.6155842264
0.6155842264
0.6155842264
0.6155842263
0.6155842263
0.6155842263
0.6155842263
0.6155842263
0.6155842263
0.6161826038
0.6161826038
0.6161826038
0.6161826038
0.6161826038
0.6161826038
0.6161826038
0.6161826038
0.6161826038
0.6161826038
0.6161826038
0.6161826038
0.6161826038
0.6161826038
0.6161826038
0.6161826038
0.6161826038
0.6161826038
0.6161826038
0.6161826038
0.6161826038
0.6161826038
0.6161826038
0.6161826038
0.6161826038
0.6161826038
0.6161826038
0.6161826038
0.6161826038
0.6161826038
0.6161826038
0.6161826038
0.6161826038
0.6161826038
0.6161826038
0.6161826038
0.6161826038
0.6161826038
0.6161826038
0.6161826038
0.6161826038
0.6161826038
0.6161826038
0.6161826038
0.6161826038
0.6161826038
0.6161826038
0.6161826038
0.6161826038
0.6161826038
0.6167809811
0.6167809811
0.6167809811
0.6167809811
0.6167809811
0.6167809811
0.6167809811
0.6167809811
0.6167809811
0.6167809811
0.6167809811
0.6167809811
0.6167809811