/*--------------------------------*- C++ -*----------------------------------*\
| =========                 |                                                 |
| \\      /  F ield         | OpenFOAM: The Open Source CFD Toolbox           |
|  \\    /   O peration     | Version:  5.x                                   |
|   \\  /    A nd           | Web:      www.OpenFOAM.org                      |
|    \\/     M anipulation  |                                                 |
\*---------------------------------------------------------------------------*/
FoamFile
{
    version     2.0;
    format      ascii;
    class       volScalarField;
    location    "0.004";
    object      sigma;
}
// * * * * * * * * * * * * * * * * * * * * * * * * * * * * * * * * * * * * * //

dimensions      [1 0 -2 0 0 0 0];

internalField   nonuniform List<scalar> 
7950
(
0.5900911127
0.590091064
0.5900909565
0.5900907927
0.5900905721
0.5900902935
0.590089956
0.5900895577
0.5900890963
0.5900885699
0.5900879752
0.5900873094
0.5900865685
0.5900857487
0.5900848456
0.5900838536
0.590082767
0.5900815797
0.5900802844
0.5900788733
0.5900773375
0.5900756673
0.5900738517
0.5900718792
0.590069736
0.5900674075
0.5900648775
0.5900621277
0.5900591379
0.5900558859
0.590052347
0.5900484935
0.5900442947
0.5900397168
0.5900347217
0.5900292675
0.5900233073
0.5900167886
0.5900096537
0.5900018373
0.5899932675
0.5899838634
0.5899735351
0.5899621819
0.5899496914
0.5899359385
0.5899207824
0.5899040665
0.5898856148
0.5898652308
0.5905893806
0.5905893065
0.590589143
0.5905888944
0.5905885607
0.5905881415
0.5905876361
0.5905870437
0.5905863631
0.5905855929
0.5905847316
0.5905837775
0.5905827291
0.5905815842
0.5905803405
0.5905789958
0.5905775474
0.5905759928
0.5905743292
0.5905725536
0.5905706627
0.5905686534
0.5905665221
0.5905642655
0.5905618801
0.590559362
0.5905567077
0.5905539132
0.5905509753
0.5905478902
0.5905446544
0.5905412646
0.5905377181
0.5905340122
0.5905301447
0.5905261144
0.5905219205
0.5905175631
0.5905130438
0.5905083653
0.5905035318
0.5904985499
0.590493428
0.5904881778
0.5904828141
0.5904773548
0.5904718233
0.5904662475
0.5904606613
0.5904551059
0.5911242776
0.5911242212
0.5911240968
0.5911239077
0.5911236546
0.5911233373
0.5911229559
0.5911225107
0.5911220011
0.5911214274
0.5911207893
0.5911200867
0.5911193195
0.5911184877
0.5911175912
0.5911166299
0.5911156039
0.5911145129
0.5911133571
0.5911121366
0.5911108517
0.5911095023
0.5911080891
0.5911066123
0.5911050723
0.59110347
0.5911018059
0.5911000812
0.5910982972
0.5910964545
0.5910945553
0.591092601
0.5910905937
0.5910885355
0.5910864293
0.5910842776
0.5910820838
0.5910798513
0.5910775843
0.5910752867
0.5910729635
0.5910706197
0.591068261
0.5910658929
0.5910635221
0.591061155
0.5910587989
0.591056461
0.5910541487
0.5910518699
0.5916870813
0.5916870472
0.5916869722
0.5916868583
0.591686706
0.5916865153
0.5916862864
0.5916860198
0.5916857156
0.5916853738
0.5916849949
0.5916845791
0.5916841269
0.5916836384
0.5916831142
0.5916825549
0.5916819604
0.591681332
0.5916806696
0.5916799744
0.5916792467
0.5916784876
0.5916776976
0.5916768777
0.5916760287
0.5916751518
0.5916742481
0.5916733185
0.5916723644
0.5916713871
0.5916703878
0.5916693683
0.5916683299
0.5916672742
0.5916662028
0.5916651179
0.591664021
0.591662914
0.5916617994
0.5916606787
0.5916595544
0.5916584284
0.5916573035
0.5916561814
0.5916550649
0.5916539564
0.5916528579
0.5916517719
0.5916507009
0.5916496473
0.5922667207
0.5922667021
0.5922666613
0.5922665993
0.5922665165
0.5922664129
0.5922662888
0.5922661444
0.5922659796
0.592265795
0.5922655905
0.5922653665
0.5922651235
0.5922648615
0.5922645809
0.5922642822
0.5922639656
0.5922636317
0.5922632811
0.5922629138
0.5922625308
0.5922621325
0.5922617192
0.5922612918
0.5922608508
0.5922603969
0.5922599307
0.592259453
0.5922589645
0.5922584662
0.5922579584
0.5922574423
0.5922569187
0.5922563882
0.5922558521
0.592255311
0.592254766
0.5922542177
0.5922536675
0.5922531162
0.5922525648
0.5922520141
0.5922514653
0.5922509195
0.5922503773
0.59224984
0.5922493085
0.5922487837
0.5922482666
0.5922477582
0.5928555218
0.5928555123
0.5928554911
0.592855459
0.592855416
0.5928553625
0.5928552982
0.5928552233
0.592855138
0.5928550427
0.592854937
0.5928548215
0.5928546963
0.5928545613
0.5928544169
0.5928542636
0.5928541012
0.5928539301
0.5928537505
0.592853563
0.5928533675
0.5928531645
0.5928529544
0.5928527373
0.5928525139
0.592852284
0.5928520486
0.5928518077
0.5928515616
0.5928513111
0.5928510564
0.5928507979
0.5928505359
0.5928502713
0.592850004
0.5928497345
0.5928494639
0.5928491918
0.5928489193
0.5928486464
0.5928483739
0.5928481022
0.5928478315
0.5928475626
0.5928472958
0.5928470316
0.5928467702
0.5928465124
0.5928462585
0.5928460088
0.5934490754
0.5934490706
0.5934490599
0.5934490435
0.5934490217
0.5934489946
0.5934489619
0.5934489241
0.5934488809
0.5934488326
0.5934487791
0.5934487207
0.5934486573
0.5934485892
0.5934485163
0.5934484387
0.5934483569
0.5934482706
0.5934481801
0.5934480856
0.5934479874
0.5934478852
0.5934477798
0.5934476707
0.5934475586
0.5934474434
0.5934473255
0.5934472049
0.5934470819
0.5934469566
0.5934468296
0.5934467005
0.59344657
0.5934464381
0.593446305
0.593446171
0.5934460363
0.5934459012
0.5934457658
0.5934456305
0.5934454954
0.5934453606
0.5934452265
0.5934450934
0.5934449613
0.5934448304
0.5934447011
0.5934445736
0.593444448
0.5934443246
0.5940450392
0.5940450366
0.5940450314
0.5940450231
0.5940450122
0.5940449986
0.5940449823
0.5940449633
0.5940449417
0.5940449174
0.5940448906
0.5940448613
0.5940448296
0.5940447952
0.5940447589
0.5940447201
0.5940446791
0.5940446358
0.5940445906
0.5940445433
0.594044494
0.5940444431
0.5940443904
0.5940443359
0.5940442799
0.5940442223
0.5940441636
0.5940441034
0.5940440422
0.5940439797
0.5940439163
0.5940438521
0.594043787
0.5940437214
0.5940436551
0.5940435885
0.5940435216
0.5940434543
0.5940433871
0.5940433198
0.5940432525
0.5940431857
0.5940431192
0.594043053
0.5940429875
0.5940429225
0.5940428584
0.594042795
0.5940427328
0.5940426714
0.5946422126
0.5946422114
0.5946422086
0.5946422046
0.5946421991
0.5946421922
0.5946421842
0.5946421747
0.594642164
0.5946421518
0.5946421383
0.5946421238
0.5946421078
0.5946420908
0.5946420727
0.5946420533
0.5946420329
0.5946420113
0.5946419886
0.5946419652
0.5946419406
0.5946419151
0.5946418888
0.5946418618
0.5946418339
0.5946418052
0.5946417759
0.5946417458
0.5946417153
0.5946416842
0.5946416527
0.5946416208
0.5946415885
0.5946415557
0.5946415228
0.5946414897
0.5946414564
0.5946414228
0.5946413895
0.594641356
0.5946413226
0.5946412893
0.5946412562
0.5946412232
0.5946411907
0.5946411584
0.5946411265
0.5946410952
0.5946410641
0.5946410338
0.5952399902
0.5952399896
0.5952399884
0.5952399864
0.5952399836
0.5952399801
0.5952399761
0.5952399714
0.595239966
0.5952399599
0.5952399533
0.595239946
0.5952399381
0.5952399296
0.5952399205
0.5952399109
0.5952399007
0.59523989
0.5952398787
0.595239867
0.5952398549
0.5952398422
0.595239829
0.5952398155
0.5952398016
0.5952397874
0.5952397727
0.5952397579
0.5952397426
0.5952397272
0.5952397115
0.5952396955
0.5952396796
0.5952396632
0.5952396468
0.5952396303
0.5952396137
0.5952395971
0.5952395806
0.5952395638
0.5952395472
0.5952395307
0.5952395143
0.595239498
0.5952394816
0.5952394656
0.5952394497
0.5952394341
0.5952394188
0.5952394036
0.5958380692
0.5958380688
0.5958380682
0.5958380672
0.5958380658
0.5958380642
0.5958380621
0.5958380597
0.5958380571
0.5958380541
0.5958380508
0.5958380472
0.5958380432
0.5958380389
0.5958380345
0.5958380296
0.5958380246
0.5958380193
0.5958380137
0.5958380078
0.5958380017
0.5958379955
0.595837989
0.5958379821
0.5958379753
0.5958379682
0.5958379609
0.5958379535
0.595837946
0.5958379383
0.5958379304
0.5958379226
0.5958379145
0.5958379064
0.5958378983
0.59583789
0.5958378818
0.5958378735
0.5958378654
0.5958378571
0.5958378488
0.5958378405
0.5958378323
0.5958378242
0.5958378161
0.5958378082
0.5958378003
0.5958377925
0.5958377848
0.5958377773
0.5964362981
0.5964362979
0.5964362975
0.5964362971
0.5964362965
0.5964362954
0.5964362944
0.5964362934
0.596436292
0.5964362906
0.596436289
0.5964362872
0.5964362851
0.5964362829
0.5964362807
0.5964362785
0.5964362758
0.5964362732
0.5964362704
0.5964362676
0.5964362645
0.5964362613
0.5964362581
0.5964362548
0.5964362514
0.5964362478
0.5964362441
0.5964362405
0.5964362367
0.5964362328
0.596436229
0.5964362251
0.5964362211
0.5964362171
0.596436213
0.596436209
0.5964362047
0.5964362007
0.5964361967
0.5964361924
0.5964361884
0.5964361843
0.5964361803
0.5964361761
0.5964361722
0.5964361682
0.5964361643
0.5964361603
0.5964361567
0.5964361528
0.5970346015
0.5970346015
0.5970346013
0.5970346011
0.5970346007
0.5970346003
0.5970345996
0.5970345992
0.5970345984
0.5970345978
0.597034597
0.597034596
0.597034595
0.597034594
0.597034593
0.5970345918
0.5970345904
0.5970345891
0.5970345877
0.5970345863
0.5970345847
0.5970345833
0.5970345817
0.5970345801
0.5970345782
0.5970345764
0.5970345746
0.5970345728
0.597034571
0.5970345691
0.5970345671
0.5970345651
0.5970345633
0.5970345613
0.5970345592
0.5970345572
0.5970345552
0.597034553
0.597034551
0.5970345489
0.5970345469
0.5970345449
0.5970345429
0.5970345409
0.5970345388
0.5970345368
0.597034535
0.597034533
0.5970345312
0.5970345294
0.597632942
0.597632942
0.597632942
0.5976329418
0.5976329416
0.5976329414
0.5976329412
0.5976329408
0.5976329406
0.5976329402
0.5976329398
0.5976329394
0.5976329388
0.5976329384
0.5976329378
0.5976329372
0.5976329366
0.597632936
0.5976329352
0.5976329346
0.5976329337
0.5976329329
0.5976329321
0.5976329313
0.5976329305
0.5976329297
0.5976329287
0.5976329279
0.5976329269
0.5976329259
0.5976329251
0.597632924
0.597632923
0.597632922
0.597632921
0.59763292
0.597632919
0.597632918
0.597632917
0.597632916
0.597632915
0.5976329139
0.5976329129
0.5976329119
0.5976329109
0.5976329099
0.5976329089
0.5976329081
0.5976329071
0.5976329061
0.5982313012
0.5982313012
0.598231301
0.598231301
0.598231301
0.5982313008
0.5982313008
0.5982313006
0.5982313004
0.5982313002
0.5982313
0.5982312998
0.5982312996
0.5982312994
0.598231299
0.5982312988
0.5982312983
0.5982312981
0.5982312977
0.5982312973
0.5982312969
0.5982312965
0.5982312961
0.5982312957
0.5982312953
0.5982312949
0.5982312945
0.5982312941
0.5982312935
0.5982312931
0.5982312927
0.5982312921
0.5982312917
0.5982312911
0.5982312907
0.5982312901
0.5982312897
0.5982312891
0.5982312887
0.598231288
0.5982312876
0.598231287
0.5982312866
0.598231286
0.5982312856
0.598231285
0.5982312846
0.5982312842
0.5982312836
0.5982312832
0.5988296694
0.5988296694
0.5988296694
0.5988296694
0.5988296692
0.5988296692
0.5988296692
0.598829669
0.598829669
0.598829669
0.5988296688
0.5988296686
0.5988296686
0.5988296684
0.5988296684
0.5988296682
0.598829668
0.5988296678
0.5988296676
0.5988296676
0.5988296674
0.5988296672
0.598829667
0.5988296668
0.5988296666
0.5988296664
0.598829666
0.5988296658
0.5988296656
0.5988296654
0.5988296652
0.598829665
0.5988296646
0.5988296644
0.5988296642
0.598829664
0.5988296636
0.5988296634
0.5988296632
0.5988296629
0.5988296625
0.5988296623
0.5988296621
0.5988296619
0.5988296615
0.5988296613
0.5988296611
0.5988296609
0.5988296607
0.5988296605
0.5994280423
0.5994280423
0.5994280423
0.5994280421
0.5994280421
0.5994280421
0.5994280421
0.5994280421
0.5994280421
0.5994280419
0.5994280419
0.5994280419
0.5994280419
0.5994280417
0.5994280417
0.5994280417
0.5994280415
0.5994280415
0.5994280413
0.5994280413
0.5994280411
0.5994280411
0.5994280411
0.5994280409
0.5994280407
0.5994280407
0.5994280405
0.5994280405
0.5994280403
0.5994280403
0.5994280401
0.5994280399
0.5994280399
0.5994280397
0.5994280397
0.5994280395
0.5994280393
0.5994280393
0.5994280391
0.5994280391
0.5994280389
0.5994280387
0.5994280387
0.5994280385
0.5994280383
0.5994280383
0.5994280381
0.5994280379
0.5994280379
0.5994280377
0.6000264174
0.6000264174
0.6000264174
0.6000264174
0.6000264174
0.6000264172
0.6000264172
0.6000264172
0.6000264172
0.6000264172
0.6000264172
0.6000264172
0.6000264172
0.6000264172
0.600026417
0.600026417
0.600026417
0.600026417
0.600026417
0.6000264168
0.6000264168
0.6000264168
0.6000264168
0.6000264166
0.6000264166
0.6000264166
0.6000264166
0.6000264164
0.6000264164
0.6000264164
0.6000264164
0.6000264162
0.6000264162
0.6000264162
0.600026416
0.600026416
0.600026416
0.6000264158
0.6000264158
0.6000264158
0.6000264158
0.6000264156
0.6000264156
0.6000264156
0.6000264154
0.6000264154
0.6000264154
0.6000264154
0.6000264152
0.6000264152
0.6006247935
0.6006247935
0.6006247935
0.6006247935
0.6006247935
0.6006247935
0.6006247935
0.6006247935
0.6006247935
0.6006247935
0.6006247935
0.6006247935
0.6006247935
0.6006247935
0.6006247935
0.6006247935
0.6006247933
0.6006247933
0.6006247933
0.6006247933
0.6006247933
0.6006247933
0.6006247933
0.6006247933
0.6006247933
0.6006247931
0.6006247931
0.6006247931
0.6006247931
0.6006247931
0.6006247931
0.6006247931
0.6006247929
0.6006247929
0.6006247929
0.6006247929
0.6006247929
0.6006247929
0.6006247929
0.6006247927
0.6006247927
0.6006247927
0.6006247927
0.6006247927
0.6006247927
0.6006247927
0.6006247925
0.6006247925
0.6006247925
0.6006247925
0.6012231704
0.6012231704
0.6012231704
0.6012231704
0.6012231704
0.6012231704
0.6012231704
0.6012231704
0.6012231704
0.6012231704
0.6012231702
0.6012231702
0.6012231702
0.6012231702
0.6012231702
0.6012231702
0.6012231702
0.6012231702
0.6012231702
0.6012231702
0.6012231702
0.6012231702
0.6012231702
0.6012231702
0.6012231702
0.6012231702
0.6012231702
0.6012231702
0.6012231702
0.60122317
0.60122317
0.60122317
0.60122317
0.60122317
0.60122317
0.60122317
0.60122317
0.60122317
0.60122317
0.60122317
0.60122317
0.60122317
0.60122317
0.6012231698
0.6012231698
0.6012231698
0.6012231698
0.6012231698
0.6012231698
0.6012231698
0.6018215474
0.6018215474
0.6018215474
0.6018215474
0.6018215474
0.6018215474
0.6018215474
0.6018215474
0.6018215474
0.6018215474
0.6018215474
0.6018215474
0.6018215474
0.6018215474
0.6018215474
0.6018215474
0.6018215474
0.6018215474
0.6018215474
0.6018215474
0.6018215474
0.6018215474
0.6018215474
0.6018215474
0.6018215474
0.6018215474
0.6018215474
0.6018215474
0.6018215474
0.6018215474
0.6018215474
0.6018215474
0.6018215474
0.6018215474
0.6018215474
0.6018215474
0.6018215472
0.6018215472
0.6018215472
0.6018215472
0.6018215472
0.6018215472
0.6018215472
0.6018215472
0.6018215472
0.6018215472
0.6018215472
0.6018215472
0.6018215472
0.6018215472
0.6024199247
0.6024199247
0.6024199247
0.6024199247
0.6024199247
0.6024199247
0.6024199247
0.6024199247
0.6024199247
0.6024199247
0.6024199247
0.6024199247
0.6024199247
0.6024199247
0.6024199247
0.6024199247
0.6024199247
0.6024199247
0.6024199247
0.6024199247
0.6024199247
0.6024199247
0.6024199247
0.6024199247
0.6024199247
0.6024199247
0.6024199245
0.6024199245
0.6024199245
0.6024199245
0.6024199245
0.6024199245
0.6024199245
0.6024199245
0.6024199245
0.6024199245
0.6024199245
0.6024199245
0.6024199245
0.6024199245
0.6024199245
0.6024199245
0.6024199245
0.6024199245
0.6024199245
0.6024199245
0.6024199245
0.6024199245
0.6024199245
0.6024199245
0.603018302
0.603018302
0.603018302
0.603018302
0.603018302
0.603018302
0.603018302
0.603018302
0.603018302
0.603018302
0.603018302
0.603018302
0.603018302
0.603018302
0.6030183018
0.6030183018
0.6030183018
0.6030183018
0.6030183018
0.6030183018
0.6030183018
0.6030183018
0.6030183018
0.6030183018
0.6030183018
0.6030183018
0.6030183018
0.6030183018
0.6030183018
0.6030183018
0.6030183018
0.6030183018
0.6030183018
0.6030183018
0.6030183018
0.6030183018
0.6030183018
0.6030183018
0.6030183018
0.6030183018
0.6030183018
0.6030183018
0.6030183018
0.6030183018
0.6030183018
0.6030183018
0.6030183018
0.6030183018
0.6030183018
0.6030183018
0.6036166794
0.6036166794
0.6036166794
0.6036166794
0.6036166794
0.6036166794
0.6036166794
0.6036166794
0.6036166794
0.6036166794
0.6036166794
0.6036166794
0.6036166794
0.6036166794
0.6036166794
0.6036166794
0.6036166794
0.6036166794
0.6036166794
0.6036166794
0.6036166794
0.6036166794
0.6036166791
0.6036166791
0.6036166791
0.6036166791
0.6036166791
0.6036166791
0.6036166791
0.6036166791
0.6036166791
0.6036166791
0.6036166791
0.6036166791
0.6036166791
0.6036166791
0.6036166791
0.6036166791
0.6036166791
0.6036166791
0.6036166791
0.6036166791
0.6036166791
0.6036166791
0.6036166791
0.6036166791
0.6036166791
0.6036166791
0.6036166791
0.6036166791
0.6042150567
0.6042150567
0.6042150567
0.6042150567
0.6042150567
0.6042150567
0.6042150567
0.6042150567
0.6042150567
0.6042150567
0.6042150567
0.6042150567
0.6042150567
0.6042150567
0.6042150567
0.6042150567
0.6042150567
0.6042150567
0.6042150567
0.6042150567
0.6042150567
0.6042150567
0.6042150567
0.6042150567
0.6042150567
0.6042150567
0.6042150567
0.6042150567
0.6042150567
0.6042150567
0.6042150567
0.6042150567
0.6042150567
0.6042150567
0.6042150567
0.6042150567
0.6042150567
0.6042150567
0.6042150567
0.6042150567
0.6042150567
0.6042150567
0.6042150567
0.6042150567
0.6042150567
0.6042150567
0.6042150567
0.6042150567
0.6042150567
0.6042150567
0.604813434
0.604813434
0.604813434
0.604813434
0.604813434
0.604813434
0.604813434
0.604813434
0.604813434
0.604813434
0.604813434
0.604813434
0.604813434
0.604813434
0.604813434
0.604813434
0.604813434
0.604813434
0.604813434
0.604813434
0.604813434
0.604813434
0.604813434
0.604813434
0.604813434
0.604813434
0.604813434
0.604813434
0.604813434
0.604813434
0.604813434
0.604813434
0.604813434
0.604813434
0.604813434
0.604813434
0.604813434
0.604813434
0.604813434
0.604813434
0.604813434
0.604813434
0.604813434
0.604813434
0.604813434
0.604813434
0.604813434
0.604813434
0.604813434
0.604813434
0.6054118113
0.6054118113
0.6054118113
0.6054118113
0.6054118113
0.6054118113
0.6054118113
0.6054118113
0.6054118113
0.6054118113
0.6054118113
0.6054118113
0.6054118113
0.6054118113
0.6054118113
0.6054118113
0.6054118113
0.6054118113
0.6054118113
0.6054118113
0.6054118113
0.6054118113
0.6054118113
0.6054118113
0.6054118113
0.6054118113
0.6054118113
0.6054118113
0.6054118113
0.6054118113
0.6054118113
0.6054118113
0.6054118113
0.6054118113
0.6054118113
0.6054118113
0.6054118113
0.6054118113
0.6054118113
0.6054118113
0.6054118113
0.6054118113
0.6054118113
0.6054118113
0.6054118113
0.6054118113
0.6054118113
0.6054118113
0.6054118113
0.6054118113
0.6060101887
0.6060101887
0.6060101887
0.6060101887
0.6060101887
0.6060101887
0.6060101887
0.6060101887
0.6060101887
0.6060101887
0.6060101887
0.6060101887
0.6060101887
0.6060101887
0.6060101887
0.6060101887
0.6060101887
0.6060101887
0.6060101887
0.6060101887
0.6060101887
0.6060101887
0.6060101887
0.6060101887
0.6060101887
0.6060101887
0.6060101887
0.6060101887
0.6060101887
0.6060101887
0.6060101887
0.6060101887
0.6060101887
0.6060101887
0.6060101887
0.6060101887
0.6060101887
0.6060101887
0.6060101887
0.6060101887
0.6060101887
0.6060101887
0.6060101887
0.6060101887
0.6060101887
0.6060101887
0.6060101887
0.6060101887
0.6060101887
0.6060101887
0.606608566
0.606608566
0.606608566
0.606608566
0.606608566
0.606608566
0.606608566
0.606608566
0.606608566
0.606608566
0.606608566
0.606608566
0.606608566
0.606608566
0.606608566
0.606608566
0.606608566
0.606608566
0.606608566
0.606608566
0.606608566
0.606608566
0.606608566
0.606608566
0.606608566
0.606608566
0.606608566
0.606608566
0.606608566
0.606608566
0.606608566
0.606608566
0.606608566
0.606608566
0.606608566
0.606608566
0.606608566
0.606608566
0.606608566
0.606608566
0.606608566
0.606608566
0.606608566
0.606608566
0.606608566
0.606608566
0.606608566
0.606608566
0.606608566
0.606608566
0.6072069433
0.6072069433
0.6072069433
0.6072069433
0.6072069433
0.6072069433
0.6072069433
0.6072069433
0.6072069433
0.6072069433
0.6072069433
0.6072069433
0.6072069433
0.6072069433
0.6072069433
0.6072069433
0.6072069433
0.6072069433
0.6072069433
0.6072069433
0.6072069433
0.6072069433
0.6072069433
0.6072069433
0.6072069433
0.6072069433
0.6072069433
0.6072069433
0.6072069433
0.6072069433
0.6072069433
0.6072069433
0.6072069433
0.6072069433
0.6072069433
0.6072069433
0.6072069433
0.6072069433
0.6072069433
0.6072069433
0.6072069433
0.6072069433
0.6072069433
0.6072069433
0.6072069433
0.6072069433
0.6072069433
0.6072069433
0.6072069433
0.6072069433
0.6078053209
0.6078053209
0.6078053209
0.6078053209
0.6078053209
0.6078053209
0.6078053209
0.6078053209
0.6078053209
0.6078053209
0.6078053209
0.6078053209
0.6078053209
0.6078053209
0.6078053209
0.6078053209
0.6078053209
0.6078053209
0.6078053209
0.6078053209
0.6078053209
0.6078053209
0.6078053209
0.6078053209
0.6078053209
0.6078053209
0.6078053209
0.6078053209
0.6078053209
0.6078053209
0.6078053209
0.6078053209
0.6078053209
0.6078053209
0.6078053209
0.6078053209
0.6078053209
0.6078053209
0.6078053209
0.6078053209
0.6078053209
0.6078053209
0.6078053209
0.6078053209
0.6078053209
0.6078053209
0.6078053209
0.6078053209
0.6078053209
0.6078053209
0.6084036982
0.6084036982
0.6084036982
0.6084036982
0.6084036982
0.6084036982
0.6084036982
0.6084036982
0.6084036982
0.6084036982
0.6084036982
0.6084036982
0.6084036982
0.6084036982
0.6084036982
0.6084036982
0.6084036982
0.6084036982
0.6084036982
0.6084036982
0.6084036982
0.6084036982
0.6084036982
0.6084036982
0.6084036982
0.6084036982
0.6084036982
0.6084036982
0.6084036982
0.6084036982
0.6084036982
0.6084036982
0.6084036982
0.6084036982
0.6084036982
0.6084036982
0.6084036982
0.6084036982
0.6084036982
0.6084036982
0.6084036982
0.6084036982
0.6084036982
0.6084036982
0.6084036982
0.6084036982
0.6084036982
0.6084036982
0.6084036982
0.6084036982
0.6090020755
0.6090020755
0.6090020755
0.6090020755
0.6090020755
0.6090020755
0.6090020755
0.6090020755
0.6090020755
0.6090020755
0.6090020755
0.6090020755
0.6090020755
0.6090020755
0.6090020755
0.6090020755
0.6090020755
0.6090020755
0.6090020755
0.6090020755
0.6090020755
0.6090020755
0.6090020755
0.6090020755
0.6090020755
0.6090020755
0.6090020755
0.6090020755
0.6090020755
0.6090020755
0.6090020755
0.6090020755
0.6090020755
0.6090020755
0.6090020755
0.6090020755
0.6090020755
0.6090020755
0.6090020755
0.6090020755
0.6090020755
0.6090020755
0.6090020755
0.6090020755
0.6090020755
0.6090020755
0.6090020755
0.6090020755
0.6090020755
0.6090020755
0.6096004528
0.6096004528
0.6096004528
0.6096004528
0.6096004528
0.6096004528
0.6096004528
0.6096004528
0.6096004528
0.6096004528
0.6096004528
0.6096004528
0.6096004528
0.6096004528
0.6096004528
0.6096004528
0.6096004528
0.6096004528
0.6096004528
0.6096004528
0.6096004528
0.6096004528
0.6096004528
0.6096004528
0.6096004528
0.6096004528
0.6096004528
0.6096004528
0.6096004528
0.6096004528
0.6096004528
0.6096004528
0.6096004528
0.6096004528
0.6096004528
0.6096004528
0.6096004528
0.6096004528
0.6096004528
0.6096004528
0.6096004528
0.6096004528
0.6096004528
0.6096004528
0.6096004528
0.6096004528
0.6096004528
0.6096004528
0.6096004528
0.6096004528
0.6101988302
0.6101988302
0.6101988302
0.6101988302
0.6101988302
0.6101988302
0.6101988302
0.6101988302
0.6101988302
0.6101988302
0.6101988302
0.6101988302
0.6101988302
0.6101988302
0.6101988302
0.6101988302
0.6101988302
0.6101988302
0.6101988302
0.6101988302
0.6101988302
0.6101988302
0.6101988302
0.6101988302
0.6101988302
0.6101988302
0.6101988302
0.6101988302
0.6101988302
0.6101988302
0.6101988302
0.6101988302
0.6101988302
0.6101988302
0.6101988302
0.6101988302
0.6101988302
0.6101988302
0.6101988302
0.6101988302
0.6101988302
0.6101988302
0.6101988302
0.6101988302
0.6101988302
0.6101988302
0.6101988302
0.6101988302
0.6101988302
0.6101988302
0.6107972075
0.6107972075
0.6107972075
0.6107972075
0.6107972075
0.6107972075
0.6107972075
0.6107972075
0.6107972075
0.6107972075
0.6107972075
0.6107972075
0.6107972075
0.6107972075
0.6107972075
0.6107972075
0.6107972075
0.6107972075
0.6107972075
0.6107972075
0.6107972075
0.6107972075
0.6107972075
0.6107972075
0.6107972075
0.6107972075
0.6107972075
0.6107972075
0.6107972075
0.6107972075
0.6107972075
0.6107972075
0.6107972075
0.6107972075
0.6107972075
0.6107972075
0.6107972075
0.6107972075
0.6107972075
0.6107972075
0.6107972075
0.6107972075
0.6107972075
0.6107972075
0.6107972075
0.6107972075
0.6107972075
0.6107972075
0.6107972075
0.6107972075
0.6113955848
0.6113955848
0.6113955848
0.6113955848
0.6113955848
0.6113955848
0.6113955848
0.6113955848
0.6113955848
0.6113955848
0.6113955848
0.6113955848
0.6113955848
0.6113955848
0.6113955848
0.6113955848
0.6113955848
0.6113955848
0.6113955848
0.6113955848
0.6113955848
0.6113955848
0.6113955848
0.6113955848
0.6113955848
0.6113955848
0.6113955848
0.6113955848
0.6113955848
0.6113955848
0.6113955848
0.6113955848
0.6113955848
0.6113955848
0.6113955848
0.6113955848
0.6113955848
0.6113955848
0.6113955848
0.6113955848
0.6113955848
0.6113955848
0.6113955848
0.6113955848
0.6113955848
0.6113955848
0.6113955848
0.6113955848
0.6113955848
0.6113955848
0.6119939623
0.6119939623
0.6119939623
0.6119939623
0.6119939623
0.6119939623
0.6119939623
0.6119939623
0.6119939623
0.6119939623
0.6119939623
0.6119939623
0.6119939623
0.6119939623
0.6119939623
0.6119939623
0.6119939623
0.6119939623
0.6119939623
0.6119939623
0.6119939623
0.6119939623
0.6119939623
0.6119939623
0.6119939623
0.6119939623
0.6119939623
0.6119939623
0.6119939623
0.6119939623
0.6119939623
0.6119939623
0.6119939623
0.6119939623
0.6119939623
0.6119939623
0.6119939623
0.6119939623
0.6119939623
0.6119939623
0.6119939623
0.6119939623
0.6119939623
0.6119939623
0.6119939623
0.6119939623
0.6119939623
0.6119939623
0.6119939623
0.6119939623
0.6125923397
0.6125923397
0.6125923397
0.6125923397
0.6125923397
0.6125923397
0.6125923397
0.6125923397
0.6125923397
0.6125923397
0.6125923397
0.6125923397
0.6125923397
0.6125923397
0.6125923397
0.6125923397
0.6125923397
0.6125923397
0.6125923397
0.6125923397
0.6125923397
0.6125923397
0.6125923397
0.6125923397
0.6125923397
0.6125923397
0.6125923397
0.6125923397
0.6125923397
0.6125923397
0.6125923397
0.6125923397
0.6125923397
0.6125923397
0.6125923397
0.6125923397
0.6125923397
0.6125923397
0.6125923397
0.6125923397
0.6125923397
0.6125923397
0.6125923397
0.6125923397
0.6125923397
0.6125923397
0.6125923397
0.6125923397
0.6125923397
0.6125923397
0.613190717
0.613190717
0.613190717
0.613190717
0.613190717
0.613190717
0.613190717
0.613190717
0.613190717
0.613190717
0.613190717
0.613190717
0.613190717
0.613190717
0.613190717
0.613190717
0.613190717
0.613190717
0.613190717
0.613190717
0.613190717
0.613190717
0.613190717
0.613190717
0.613190717
0.613190717
0.613190717
0.613190717
0.613190717
0.613190717
0.613190717
0.613190717
0.613190717
0.613190717
0.613190717
0.613190717
0.613190717
0.613190717
0.613190717
0.613190717
0.613190717
0.613190717
0.613190717
0.613190717
0.613190717
0.613190717
0.613190717
0.613190717
0.613190717
0.613190717
0.6137890943
0.6137890943
0.6137890943
0.6137890943
0.6137890943
0.6137890943
0.6137890943
0.6137890943
0.6137890943
0.6137890943
0.6137890943
0.6137890943
0.6137890943
0.6137890943
0.6137890943
0.6137890943
0.6137890943
0.6137890943
0.6137890943
0.6137890943
0.6137890943
0.6137890943
0.6137890943
0.6137890943
0.6137890943
0.6137890943
0.6137890943
0.6137890943
0.6137890943
0.6137890943
0.6137890943
0.6137890943
0.6137890943
0.6137890943
0.6137890943
0.6137890943
0.6137890943
0.6137890943
0.6137890943
0.6137890943
0.6137890943
0.6137890943
0.6137890943
0.6137890943
0.6137890943
0.6137890943
0.6137890943
0.6137890943
0.6137890943
0.6137890943
0.6143874717
0.6143874717
0.6143874717
0.6143874717
0.6143874717
0.6143874717
0.6143874717
0.6143874717
0.6143874717
0.6143874717
0.6143874717
0.6143874717
0.6143874717
0.6143874717
0.6143874717
0.6143874717
0.6143874717
0.6143874717
0.6143874717
0.6143874717
0.6143874717
0.6143874717
0.6143874717
0.6143874717
0.6143874717
0.6143874717
0.6143874717
0.6143874717
0.6143874717
0.6143874717
0.6143874717
0.6143874717
0.6143874717
0.6143874717
0.6143874717
0.6143874717
0.6143874717
0.6143874717
0.6143874717
0.6143874717
0.6143874717
0.6143874717
0.6143874717
0.6143874717
0.6143874717
0.6143874717
0.6143874717
0.6143874717
0.6143874717
0.6143874717
0.614985849
0.614985849
0.614985849
0.614985849
0.614985849
0.614985849
0.614985849
0.614985849
0.614985849
0.614985849
0.614985849
0.614985849
0.614985849
0.614985849
0.614985849
0.614985849
0.614985849
0.614985849
0.614985849
0.614985849
0.614985849
0.614985849
0.614985849
0.614985849
0.614985849
0.614985849
0.614985849
0.614985849
0.614985849
0.614985849
0.614985849
0.614985849
0.614985849
0.614985849
0.614985849
0.614985849
0.614985849
0.614985849
0.614985849
0.614985849
0.614985849
0.614985849
0.614985849
0.614985849
0.614985849
0.614985849
0.614985849
0.614985849
0.614985849
0.614985849
0.6155842263
0.6155842263
0.6155842263
0.6155842263
0.6155842263
0.6155842263
0.6155842263
0.6155842263
0.6155842263
0.6155842263
0.6155842263
0.6155842263
0.6155842263
0.6155842263
0.6155842263
0.6155842263
0.6155842263
0.6155842263
0.6155842263
0.6155842263
0.6155842263
0.6155842263
0.6155842263
0.6155842263
0.6155842263
0.6155842263
0.6155842263
0.6155842263
0.6155842263
0.6155842263
0.6155842263
0.6155842263
0.6155842263
0.6155842263
0.6155842263
0.6155842263
0.6155842263
0.6155842263
0.6155842263
0.6155842263
0.6155842263
0.6155842263
0.6155842263
0.6155842263
0.6155842263
0.6155842263
0.6155842263
0.6155842263
0.6155842263
0.6155842263
0.6161826038
0.6161826038
0.6161826038
0.6161826038
0.6161826038
0.6161826038
0.6161826038
0.6161826038
0.6161826038
0.6161826038
0.6161826038
0.6161826038
0.6161826038
0.6161826038
0.6161826038
0.6161826038
0.6161826038
0.6161826038
0.6161826038
0.6161826038
0.6161826038
0.6161826038
0.6161826038
0.6161826038
0.6161826038
0.6161826038
0.6161826038
0.6161826038
0.6161826038
0.6161826038
0.6161826038
0.6161826038
0.6161826038
0.6161826038
0.6161826038
0.6161826038
0.6161826038
0.6161826038
0.6161826038
0.6161826038
0.6161826038
0.6161826038
0.6161826038
0.6161826038
0.6161826038
0.6161826038
0.6161826038
0.6161826038
0.6161826038
0.6161826038
0.6167809812
0.6167809812
0.6167809812
0.6167809812
0.6167809812
0.6167809812
0.6167809812
0.6167809812
0.6167809812
0.6167809812
0.6167809812
0.6167809812
0.6167809812
0.6167809812
0.6167809812
0.6167809812
0.6167809812
0.6167809812