/*--------------------------------*- C++ -*----------------------------------*\
| =========                 |                                                 |
| \\      /  F ield         | OpenFOAM: The Open Source CFD Toolbox           |
|  \\    /   O peration     | Version:  2.3.1                                 |
|   \\  /    A nd           | Web:      www.OpenFOAM.org                      |
|    \\/     M anipulation  |                                                 |
\*---------------------------------------------------------------------------*/
FoamFile
{
    version     2.0;
    format      ascii;
    class       volScalarField;
    object      T;
}
// * * * * * * * * * * * * * * * * * * * * * * * * * * * * * * * * * * * * * //

dimensions      [0 0 0 1 0 0 0];

internalField   uniform 273;

boundaryField
{
    axis
    {
        type            empty;
    }

    inlet
    {
        type            fixedValue;
        value           uniform 273;
    }

    wall
    {
        type            fixedValue; 
 //       value           uniform 1573;

        value           nonuniform List<scalar>
       100
       (

273
273
273
273
273
273
273
273
273
273
273
273
273
273
273
273
273
273
273
273
388.15
449.15
459.15
436.15
429.15
494.15
540.15
678.15
806.15
940.15
1095.15
1236.15
1307.15
1360.15
1405.15
1441.15
1466.15
1486.15
1501.15
1517.15
1527.15
1537.15
1543.15
1549.15
1555.15
1559.15
1563.15
1567.15
1570.15
1572.15
1575.15
1577.15
1578.15
1580.15
1581.15
1582.15
1583.15
1583.15
1584.15
1584.15
1585.15
1585.15
1586.15
1586.15
1586.15
1586.15
1586.15
1586.15
1586.15
1586.15
1585.15
1584.15
1583.15
1582.15
1581.15
1579.15
1577.15
1575.15
1573.15
1571.15
1567.15
1563.15
1559.15
1552.15
1546.15
1538.15
1528.15
1516.15
1501.15
1483.15
1462.15
1444.15
1422.15
1392.15
1357.15
1325.15
1229.15
1133.15
1034.15
949.15

       );
        



    }
    outlet
    {
        type            zeroGradient;
    }
   front
    {
        type            wedge;
    }
   back
    {
        type            wedge;
    }

}

// ************************************************************************* //
