/*--------------------------------*- C++ -*----------------------------------*\
| =========                 |                                                 |
| \\      /  F ield         | OpenFOAM: The Open Source CFD Toolbox           |
|  \\    /   O peration     | Version:  2.3.1                                 |
|   \\  /    A nd           | Web:      www.OpenFOAM.org                      |
|    \\/     M anipulation  |                                                 |
\*---------------------------------------------------------------------------*/
FoamFile
{
    version     2.0;
    format      ascii;
    class       volScalarField;
    location    "0";
    object      T;
}
// * * * * * * * * * * * * * * * * * * * * * * * * * * * * * * * * * * * * * //

dimensions      [ 0 0 0 1 0 0 0 ];

internalField   nonuniform List<scalar> 
100001
(
1773
1772.9953
1772.9906
1772.9859
1772.9812
1772.9765
1772.9717
1772.967
1772.9623
1772.9576
1772.9529
1772.9482
1772.9435
1772.9388
1772.9341
1772.9294
1772.9246
1772.9199
1772.9152
1772.9105
1772.9058
1772.9011
1772.8964
1772.8917
1772.887
1772.8823
1772.8775
1772.8728
1772.8681
1772.8634
1772.8587
1772.854
1772.8493
1772.8446
1772.8399
1772.8352
1772.8304
1772.8257
1772.821
1772.8163
1772.8116
1772.8069
1772.8022
1772.7975
1772.7928
1772.7881
1772.7833
1772.7786
1772.7739
1772.7692
1772.7645
1772.7598
1772.7551
1772.7504
1772.7457
1772.741
1772.7362
1772.7315
1772.7268
1772.7221
1772.7174
1772.7127
1772.708
1772.7033
1772.6986
1772.6939
1772.6891
1772.6844
1772.6797
1772.675
1772.6703
1772.6656
1772.6609
1772.6562
1772.6515
1772.6468
1772.642
1772.6373
1772.6326
1772.6279
1772.6232
1772.6185
1772.6138
1772.6091
1772.6044
1772.5997
1772.5949
1772.5902
1772.5855
1772.5808
1772.5761
1772.5714
1772.5667
1772.562
1772.5573
1772.5526
1772.5478
1772.5431
1772.5384
1772.5337
1772.529
1772.5243
1772.5196
1772.5149
1772.5102
1772.5055
1772.5007
1772.496
1772.4913
1772.4866
1772.4819
1772.4772
1772.4725
1772.4678
1772.4631
1772.4584
1772.4536
1772.4489
1772.4442
1772.4395
1772.4348
1772.4301
1772.4254
1772.4207
1772.416
1772.4113
1772.4065
1772.4018
1772.3971
1772.3924
1772.3877
1772.383
1772.3783
1772.3736
1772.3689
1772.3642
1772.3594
1772.3547
1772.35
1772.3453
1772.3406
1772.3359
1772.3312
1772.3265
1772.3218
1772.3171
1772.3123
1772.3076
1772.3029
1772.2982
1772.2935
1772.2888
1772.2841
1772.2794
1772.2747
1772.27
1772.2652
1772.2605
1772.2558
1772.2511
1772.2464
1772.2417
1772.237
1772.2323
1772.2276
1772.2229
1772.2181
1772.2134
1772.2087
1772.204
1772.1993
1772.1946
1772.1899
1772.1852
1772.1805
1772.1758
1772.171
1772.1663
1772.1616
1772.1569
1772.1522
1772.1475
1772.1428
1772.1381
1772.1334
1772.1287
1772.1239
1772.1192
1772.1145
1772.1098
1772.1051
1772.1004
1772.0957
1772.091
1772.0863
1772.0816
1772.0768
1772.0721
1772.0674
1772.0627
1772.058
1772.0533
1772.0486
1772.0439
1772.0392
1772.0345
1772.0297
1772.025
1772.0203
1772.0156
1772.0109
1772.0062
1772.0015
1771.9968
1771.9921
1771.9874
1771.9826
1771.9779
1771.9732
1771.9685
1771.9638
1771.9591
1771.9544
1771.9497
1771.945
1771.9403
1771.9355
1771.9308
1771.9261
1771.9214
1771.9167
1771.912
1771.9073
1771.9026
1771.8979
1771.8932
1771.8884
1771.8837
1771.879
1771.8743
1771.8696
1771.8649
1771.8602
1771.8555
1771.8508
1771.8461
1771.8413
1771.8366
1771.8319
1771.8272
1771.8225
1771.8178
1771.8131
1771.8084
1771.8037
1771.799
1771.7942
1771.7895
1771.7848
1771.7801
1771.7754
1771.7707
1771.766
1771.7613
1771.7566
1771.7519
1771.7471
1771.7424
1771.7377
1771.733
1771.7283
1771.7236
1771.7189
1771.7142
1771.7095
1771.7048
1771.7
1771.6953
1771.6906
1771.6859
1771.6812
1771.6765
1771.6718
1771.6671
1771.6624
1771.6577
1771.6529
1771.6482
1771.6435
1771.6388
1771.6341
1771.6294
1771.6247
1771.62
1771.6153
1771.6106
1771.6058
1771.6011
1771.5964
1771.5917
1771.587
1771.5823
1771.5776
1771.5729
1771.5682
1771.5635
1771.5587
1771.554
1771.5493
1771.5446
1771.5399
1771.5352
1771.5305
1771.5258
1771.5211
1771.5164
1771.5116
1771.5069
1771.5022
1771.4975
1771.4928
1771.4881
1771.4834
1771.4787
1771.474
1771.4693
1771.4645
1771.4598
1771.4551
1771.4504
1771.4457
1771.441
1771.4363
1771.4316
1771.4269
1771.4222
1771.4174
1771.4127
1771.408
1771.4033
1771.3986
1771.3939
1771.3892
1771.3845
1771.3798
1771.3751
1771.3703
1771.3656
1771.3609
1771.3562
1771.3515
1771.3468
1771.3421
1771.3374
1771.3327
1771.328
1771.3232
1771.3185
1771.3138
1771.3091
1771.3044
1771.2997
1771.295
1771.2903
1771.2856
1771.2809
1771.2761
1771.2714
1771.2667
1771.262
1771.2573
1771.2526
1771.2479
1771.2432
1771.2385
1771.2338
1771.229
1771.2243
1771.2196
1771.2149
1771.2102
1771.2055
1771.2008
1771.1961
1771.1914
1771.1867
1771.1819
1771.1772
1771.1725
1771.1678
1771.1631
1771.1584
1771.1537
1771.149
1771.1443
1771.1396
1771.1348
1771.1301
1771.1254
1771.1207
1771.116
1771.1113
1771.1066
1771.1019
1771.0972
1771.0925
1771.0877
1771.083
1771.0783
1771.0736
1771.0689
1771.0642
1771.0595
1771.0548
1771.0501
1771.0454
1771.0406
1771.0359
1771.0312
1771.0265
1771.0218
1771.0171
1771.0124
1771.0077
1771.003
1770.9983
1770.9935
1770.9888
1770.9841
1770.9794
1770.9747
1770.97
1770.9653
1770.9606
1770.9559
1770.9512
1770.9464
1770.9417
1770.937
1770.9323
1770.9276
1770.9229
1770.9182
1770.9135
1770.9088
1770.9041
1770.8993
1770.8946
1770.8899
1770.8852
1770.8805
1770.8758
1770.8711
1770.8664
1770.8617
1770.857
1770.8522
1770.8475
1770.8428
1770.8381
1770.8334
1770.8287
1770.824
1770.8193
1770.8146
1770.8099
1770.8051
1770.8004
1770.7957
1770.791
1770.7863
1770.7816
1770.7769
1770.7722
1770.7675
1770.7628
1770.758
1770.7533
1770.7486
1770.7439
1770.7392
1770.7345
1770.7298
1770.7251
1770.7204
1770.7157
1770.7109
1770.7062
1770.7015
1770.6968
1770.6921
1770.6874
1770.6827
1770.678
1770.6733
1770.6686
1770.6638
1770.6591
1770.6544
1770.6497
1770.645
1770.6403
1770.6356
1770.6309
1770.6262
1770.6215
1770.6167
1770.612
1770.6073
1770.6026
1770.5979
1770.5932
1770.5885
1770.5838
1770.5791
1770.5744
1770.5696
1770.5649
1770.5602
1770.5555
1770.5508
1770.5461
1770.5414
1770.5367
1770.532
1770.5273
1770.5225
1770.5178
1770.5131
1770.5084
1770.5037
1770.499
1770.4943
1770.4896
1770.4849
1770.4802
1770.4754
1770.4707
1770.466
1770.4613
1770.4566
1770.4519
1770.4472
1770.4425
1770.4378
1770.4331
1770.4283
1770.4236
1770.4189
1770.4142
1770.4095
1770.4048
1770.4001
1770.3954
1770.3907
1770.386
1770.3812
1770.3765
1770.3718
1770.3671
1770.3624
1770.3577
1770.353
1770.3483
1770.3436
1770.3389
1770.3341
1770.3294
1770.3247
1770.32
1770.3153
1770.3106
1770.3059
1770.3012
1770.2965
1770.2918
1770.287
1770.2823
1770.2776
1770.2729
1770.2682
1770.2635
1770.2588
1770.2541
1770.2494
1770.2447
1770.2399
1770.2352
1770.2305
1770.2258
1770.2211
1770.2164
1770.2117
1770.207
1770.2023
1770.1976
1770.1928
1770.1881
1770.1834
1770.1787
1770.174
1770.1693
1770.1646
1770.1599
1770.1552
1770.1505
1770.1457
1770.141
1770.1363
1770.1316
1770.1269
1770.1222
1770.1175
1770.1128
1770.1081
1770.1034
1770.0986
1770.0939
1770.0892
1770.0845
1770.0798
1770.0751
1770.0704
1770.0657
1770.061
1770.0563
1770.0515
1770.0468
1770.0421
1770.0374
1770.0327
1770.028
1770.0233
1770.0186
1770.0139
1770.0092
1770.0044
1769.9997
1769.995
1769.9903
1769.9856
1769.9809
1769.9762
1769.9715
1769.9668
1769.9621
1769.9573
1769.9526
1769.9479
1769.9432
1769.9385
1769.9338
1769.9291
1769.9244
1769.9197
1769.915
1769.9102
1769.9055
1769.9008
1769.8961
1769.8914
1769.8867
1769.882
1769.8773
1769.8726
1769.8679
1769.8631
1769.8584
1769.8537
1769.849
1769.8443
1769.8396
1769.8349
1769.8302
1769.8255
1769.8208
1769.816
1769.8113
1769.8066
1769.8019
1769.7972
1769.7925
1769.7878
1769.7831
1769.7784
1769.7737
1769.7689
1769.7642
1769.7595
1769.7548
1769.7501
1769.7454
1769.7407
1769.736
1769.7313
1769.7266
1769.7218
1769.7171
1769.7124
1769.7077
1769.703
1769.6983
1769.6936
1769.6889
1769.6842
1769.6795
1769.6747
1769.67
1769.6653
1769.6606
1769.6559
1769.6512
1769.6465
1769.6418
1769.6371
1769.6324
1769.6276
1769.6229
1769.6182
1769.6135
1769.6088
1769.6041
1769.5994
1769.5947
1769.59
1769.5853
1769.5805
1769.5758
1769.5711
1769.5664
1769.5617
1769.557
1769.5523
1769.5476
1769.5429
1769.5382
1769.5334
1769.5287
1769.524
1769.5193
1769.5146
1769.5099
1769.5052
1769.5005
1769.4958
1769.4911
1769.4863
1769.4816
1769.4769
1769.4722
1769.4675
1769.4628
1769.4581
1769.4534
1769.4487
1769.444
1769.4392
1769.4345
1769.4298
1769.4251
1769.4204
1769.4157
1769.411
1769.4063
1769.4016
1769.3969
1769.3921
1769.3874
1769.3827
1769.378
1769.3733
1769.3686
1769.3639
1769.3592
1769.3545
1769.3498
1769.345
1769.3403
1769.3356
1769.3309
1769.3262
1769.3215
1769.3168
1769.3121
1769.3074
1769.3027
1769.2979
1769.2932
1769.2885
1769.2838
1769.2791
1769.2744
1769.2697
1769.265
1769.2603
1769.2556
1769.2508
1769.2461
1769.2414
1769.2367
1769.232
1769.2273
1769.2226
1769.2179
1769.2132
1769.2085
1769.2037
1769.199
1769.1943
1769.1896
1769.1849
1769.1802
1769.1755
1769.1708
1769.1661
1769.1614
1769.1566
1769.1519
1769.1472
1769.1425
1769.1378
1769.1331
1769.1284
1769.1237
1769.119
1769.1143
1769.1095
1769.1048
1769.1001
1769.0954
1769.0907
1769.086
1769.0813
1769.0766
1769.0719
1769.0672
1769.0624
1769.0577
1769.053
1769.0483
1769.0436
1769.0389
1769.0342
1769.0295
1769.0248
1769.0201
1769.0153
1769.0106
1769.0059
1769.0012
1768.9965
1768.9918
1768.9871
1768.9824
1768.9777
1768.973
1768.9682
1768.9635
1768.9588
1768.9541
1768.9494
1768.9447
1768.94
1768.9353
1768.9306
1768.9259
1768.9211
1768.9164
1768.9117
1768.907
1768.9023
1768.8976
1768.8929
1768.8882
1768.8835
1768.8788
1768.874
1768.8693
1768.8646
1768.8599
1768.8552
1768.8505
1768.8458
1768.8411
1768.8364
1768.8317
1768.8269
1768.8222
1768.8175
1768.8128
1768.8081
1768.8034
1768.7987
1768.794
1768.7893
1768.7846
1768.7798
1768.7751
1768.7704
1768.7657
1768.761
1768.7563
1768.7516
1768.7469
1768.7422
1768.7375
1768.7327
1768.728
1768.7233
1768.7186
1768.7139
1768.7092
1768.7045
1768.6998
1768.6951
1768.6904
1768.6856
1768.6809
1768.6762
1768.6715
1768.6668
1768.6621
1768.6574
1768.6527
1768.648
1768.6433
1768.6385
1768.6338
1768.6291
1768.6244
1768.6197
1768.615
1768.6103
1768.6056
1768.6009
1768.5962
1768.5914
1768.5867
1768.582
1768.5773
1768.5726
1768.5679
1768.5632
1768.5585
1768.5538
1768.5491
1768.5443
1768.5396
1768.5349
1768.5302
1768.5255
1768.5208
1768.5161
1768.5114
1768.5067
1768.502
1768.4972
1768.4925
1768.4878
1768.4831
1768.4784
1768.4737
1768.469
1768.4643
1768.4596
1768.4549
1768.4501
1768.4454
1768.4407
1768.436
1768.4313
1768.4266
1768.4219
1768.4172
1768.4125
1768.4078
1768.403
1768.3983
1768.3936
1768.3889
1768.3842
1768.3795
1768.3748
1768.3701
1768.3654
1768.3607
1768.3559
1768.3512
1768.3465
1768.3418
1768.3371
1768.3324
1768.3277
1768.323
1768.3183
1768.3136
1768.3088
1768.3041
1768.2994
1768.2947
1768.29
1768.2853
1768.2806
1768.2759
1768.2712
1768.2665
1768.2617
1768.257
1768.2523
1768.2476
1768.2429
1768.2382
1768.2335
1768.2288
1768.2241
1768.2194
1768.2146
1768.2099
1768.2052
1768.2005
1768.1958
1768.1911
1768.1864
1768.1817
1768.177
1768.1723
1768.1675
1768.1628
1768.1581
1768.1534
1768.1487
1768.144
1768.1393
1768.1346
1768.1299
1768.1252
1768.1204
1768.1157
1768.111
1768.1063
1768.1016
1768.0969
1768.0922
1768.0875
1768.0828
1768.0781
1768.0733
1768.0686
1768.0639
1768.0592
1768.0545
1768.0498
1768.0451
1768.0404
1768.0357
1768.031
1768.0262
1768.0215
1768.0168
1768.0121
1768.0074
1768.0027
1767.998
1767.9933
1767.9886
1767.9839
1767.9791
1767.9744
1767.9697
1767.965
1767.9603
1767.9556
1767.9509
1767.9462
1767.9415
1767.9368
1767.932
1767.9273
1767.9226
1767.9179
1767.9132
1767.9085
1767.9038
1767.8991
1767.8944
1767.8897
1767.8849
1767.8802
1767.8755
1767.8708
1767.8661
1767.8614
1767.8567
1767.852
1767.8473
1767.8426
1767.8378
1767.8331
1767.8284
1767.8237
1767.819
1767.8143
1767.8096
1767.8049
1767.8002
1767.7955
1767.7907
1767.786
1767.7813
1767.7766
1767.7719
1767.7672
1767.7625
1767.7578
1767.7531
1767.7484
1767.7436
1767.7389
1767.7342
1767.7295
1767.7248
1767.7201
1767.7154
1767.7107
1767.706
1767.7013
1767.6965
1767.6918
1767.6871
1767.6824
1767.6777
1767.673
1767.6683
1767.6636
1767.6589
1767.6542
1767.6494
1767.6447
1767.64
1767.6353
1767.6306
1767.6259
1767.6212
1767.6165
1767.6118
1767.6071
1767.6023
1767.5976
1767.5929
1767.5882
1767.5835
1767.5788
1767.5741
1767.5694
1767.5647
1767.56
1767.5552
1767.5505
1767.5458
1767.5411
1767.5364
1767.5317
1767.527
1767.5223
1767.5176
1767.5129
1767.5081
1767.5034
1767.4987
1767.494
1767.4893
1767.4846
1767.4799
1767.4752
1767.4705
1767.4658
1767.461
1767.4563
1767.4516
1767.4469
1767.4422
1767.4375
1767.4328
1767.4281
1767.4234
1767.4187
1767.4139
1767.4092
1767.4045
1767.3998
1767.3951
1767.3904
1767.3857
1767.381
1767.3763
1767.3716
1767.3668
1767.3621
1767.3574
1767.3527
1767.348
1767.3433
1767.3386
1767.3339
1767.3292
1767.3245
1767.3197
1767.315
1767.3103
1767.3056
1767.3009
1767.2962
1767.2915
1767.2868
1767.2821
1767.2774
1767.2726
1767.2679
1767.2632
1767.2585
1767.2538
1767.2491
1767.2444
1767.2397
1767.235
1767.2303
1767.2255
1767.2208
1767.2161
1767.2114
1767.2067
1767.202
1767.1973
1767.1926
1767.1879
1767.1832
1767.1784
1767.1737
1767.169
1767.1643
1767.1596
1767.1549
1767.1502
1767.1455
1767.1408
1767.1361
1767.1313
1767.1266
1767.1219
1767.1172
1767.1125
1767.1078
1767.1031
1767.0984
1767.0937
1767.089
1767.0842
1767.0795
1767.0748
1767.0701
1767.0654
1767.0607
1767.056
1767.0513
1767.0466
1767.0419
1767.0371
1767.0324
1767.0277
1767.023
1767.0183
1767.0136
1767.0089
1767.0042
1766.9995
1766.9948
1766.99
1766.9853
1766.9806
1766.9759
1766.9712
1766.9665
1766.9618
1766.9571
1766.9524
1766.9477
1766.9429
1766.9382
1766.9335
1766.9288
1766.9241
1766.9194
1766.9147
1766.91
1766.9053
1766.9006
1766.8958
1766.8911
1766.8864
1766.8817
1766.877
1766.8723
1766.8676
1766.8629
1766.8582
1766.8535
1766.8487
1766.844
1766.8393
1766.8346
1766.8299
1766.8252
1766.8205
1766.8158
1766.8111
1766.8064
1766.8016
1766.7969
1766.7922
1766.7875
1766.7828
1766.7781
1766.7734
1766.7687
1766.764
1766.7593
1766.7545
1766.7498
1766.7451
1766.7404
1766.7357
1766.731
1766.7263
1766.7216
1766.7169
1766.7122
1766.7074
1766.7027
1766.698
1766.6933
1766.6886
1766.6839
1766.6792
1766.6745
1766.6698
1766.6651
1766.6603
1766.6556
1766.6509
1766.6462
1766.6415
1766.6368
1766.6321
1766.6274
1766.6227
1766.618
1766.6132
1766.6085
1766.6038
1766.5991
1766.5944
1766.5897
1766.585
1766.5803
1766.5756
1766.5709
1766.5661
1766.5614
1766.5567
1766.552
1766.5473
1766.5426
1766.5379
1766.5332
1766.5285
1766.5238
1766.519
1766.5143
1766.5096
1766.5049
1766.5002
1766.4955
1766.4908
1766.4861
1766.4814
1766.4767
1766.4719
1766.4672
1766.4625
1766.4578
1766.4531
1766.4484
1766.4437
1766.439
1766.4343
1766.4296
1766.4248
1766.4201
1766.4154
1766.4107
1766.406
1766.4013
1766.3966
1766.3919
1766.3872
1766.3825
1766.3777
1766.373
1766.3683
1766.3636
1766.3589
1766.3542
1766.3495
1766.3448
1766.3401
1766.3354
1766.3306
1766.3259
1766.3212
1766.3165
1766.3118
1766.3071
1766.3024
1766.2977
1766.293
1766.2883
1766.2835
1766.2788
1766.2741
1766.2694
1766.2647
1766.26
1766.2553
1766.2506
1766.2459
1766.2412
1766.2364
1766.2317
1766.227
1766.2223
1766.2176
1766.2129
1766.2082
1766.2035
1766.1988
1766.1941
1766.1893
1766.1846
1766.1799
1766.1752
1766.1705
1766.1658
1766.1611
1766.1564
1766.1517
1766.147
1766.1422
1766.1375
1766.1328
1766.1281
1766.1234
1766.1187
1766.114
1766.1093
1766.1046
1766.0999
1766.0951
1766.0904
1766.0857
1766.081
1766.0763
1766.0716
1766.0669
1766.0622
1766.0575
1766.0528
1766.048
1766.0433
1766.0386
1766.0339
1766.0292
1766.0245
1766.0198
1766.0151
1766.0104
1766.0057
1766.0009
1765.9962
1765.9915
1765.9868
1765.9821
1765.9774
1765.9727
1765.968
1765.9633
1765.9586
1765.9538
1765.9491
1765.9444
1765.9397
1765.935
1765.9303
1765.9256
1765.9209
1765.9162
1765.9115
1765.9067
1765.902
1765.8973
1765.8926
1765.8879
1765.8832
1765.8785
1765.8738
1765.8691
1765.8644
1765.8596
1765.8549
1765.8502
1765.8455
1765.8408
1765.8361
1765.8314
1765.8267
1765.822
1765.8173
1765.8125
1765.8078
1765.8031
1765.7984
1765.7937
1765.789
1765.7843
1765.7796
1765.7749
1765.7702
1765.7654
1765.7607
1765.756
1765.7513
1765.7466
1765.7419
1765.7372
1765.7325
1765.7278
1765.7231
1765.7183
1765.7136
1765.7089
1765.7042
1765.6995
1765.6948
1765.6901
1765.6854
1765.6807
1765.676
1765.6712
1765.6665
1765.6618
1765.6571
1765.6524
1765.6477
1765.643
1765.6383
1765.6336
1765.6289
1765.6241
1765.6194
1765.6147
1765.61
1765.6053
1765.6006
1765.5959
1765.5912
1765.5865
1765.5818
1765.577
1765.5723
1765.5676
1765.5629
1765.5582
1765.5535
1765.5488
1765.5441
1765.5394
1765.5347
1765.5299
1765.5252
1765.5205
1765.5158
1765.5111
1765.5064
1765.5017
1765.497
1765.4923
1765.4876
1765.4828
1765.4781
1765.4734
1765.4687
1765.464
1765.4593
1765.4546
1765.4499
1765.4452
1765.4405
1765.4357
1765.431
1765.4263
1765.4216
1765.4169
1765.4122
1765.4075
1765.4028
1765.3981
1765.3934
1765.3886
1765.3839
1765.3792
1765.3745
1765.3698
1765.3651
1765.3604
1765.3557
1765.351
1765.3463
1765.3415
1765.3368
1765.3321
1765.3274
1765.3227
1765.318
1765.3133
1765.3086
1765.3039
1765.2992
1765.2944
1765.2897
1765.285
1765.2803
1765.2756
1765.2709
1765.2662
1765.2615
1765.2568
1765.2521
1765.2473
1765.2426
1765.2379
1765.2332
1765.2285
1765.2238
1765.2191
1765.2144
1765.2097
1765.205
1765.2002
1765.1955
1765.1908
1765.1861
1765.1814
1765.1767
1765.172
1765.1673
1765.1626
1765.1579
1765.1531
1765.1484
1765.1437
1765.139
1765.1343
1765.1296
1765.1249
1765.1202
1765.1155
1765.1108
1765.106
1765.1013
1765.0966
1765.0919
1765.0872
1765.0825
1765.0778
1765.0731
1765.0684
1765.0637
1765.0589
1765.0542
1765.0495
1765.0448
1765.0401
1765.0354
1765.0307
1765.026
1765.0213
1765.0166
1765.0118
1765.0071
1765.0024
1764.9977
1764.993
1764.9883
1764.9836
1764.9789
1764.9742
1764.9695
1764.9647
1764.96
1764.9553
1764.9506
1764.9459
1764.9412
1764.9365
1764.9318
1764.9271
1764.9224
1764.9176
1764.9129
1764.9082
1764.9035
1764.8988
1764.8941
1764.8894
1764.8847
1764.88
1764.8753
1764.8705
1764.8658
1764.8611
1764.8564
1764.8517
1764.847
1764.8423
1764.8376
1764.8329
1764.8282
1764.8234
1764.8187
1764.814
1764.8093
1764.8046
1764.7999
1764.7952
1764.7905
1764.7858
1764.7811
1764.7763
1764.7716
1764.7669
1764.7622
1764.7575
1764.7528
1764.7481
1764.7434
1764.7387
1764.734
1764.7292
1764.7245
1764.7198
1764.7151
1764.7104
1764.7057
1764.701
1764.6963
1764.6916
1764.6869
1764.6821
1764.6774
1764.6727
1764.668
1764.6633
1764.6586
1764.6539
1764.6492
1764.6445
1764.6398
1764.635
1764.6303
1764.6256
1764.6209
1764.6162
1764.6115
1764.6068
1764.6021
1764.5974
1764.5927
1764.5879
1764.5832
1764.5785
1764.5738
1764.5691
1764.5644
1764.5597
1764.555
1764.5503
1764.5456
1764.5408
1764.5361
1764.5314
1764.5267
1764.522
1764.5173
1764.5126
1764.5079
1764.5032
1764.4985
1764.4937
1764.489
1764.4843
1764.4796
1764.4749
1764.4702
1764.4655
1764.4608
1764.4561
1764.4514
1764.4466
1764.4419
1764.4372
1764.4325
1764.4278
1764.4231
1764.4184
1764.4137
1764.409
1764.4043
1764.3995
1764.3948
1764.3901
1764.3854
1764.3807
1764.376
1764.3713
1764.3666
1764.3619
1764.3572
1764.3524
1764.3477
1764.343
1764.3383
1764.3336
1764.3289
1764.3242
1764.3195
1764.3148
1764.3101
1764.3053
1764.3006
1764.2959
1764.2912
1764.2865
1764.2818
1764.2771
1764.2724
1764.2677
1764.263
1764.2582
1764.2535
1764.2488
1764.2441
1764.2394
1764.2347
1764.23
1764.2253
1764.2206
1764.2159
1764.2111
1764.2064
1764.2017
1764.197
1764.1923
1764.1876
1764.1829
1764.1782
1764.1735
1764.1688
1764.164
1764.1593
1764.1546
1764.1499
1764.1452
1764.1405
1764.1358
1764.1311
1764.1264
1764.1217
1764.1169
1764.1122
1764.1075
1764.1028
1764.0981
1764.0934
1764.0887
1764.084
1764.0793
1764.0746
1764.0698
1764.0651
1764.0604
1764.0557
1764.051
1764.0463
1764.0416
1764.0369
1764.0322
1764.0275
1764.0227
1764.018
1764.0133
1764.0086
1764.0039
1763.9992
1763.9945
1763.9898
1763.9851
1763.9804
1763.9756
1763.9709
1763.9662
1763.9615
1763.9568
1763.9521
1763.9474
1763.9427
1763.938
1763.9333
1763.9285
1763.9238
1763.9191
1763.9144
1763.9097
1763.905
1763.9003
1763.8956
1763.8909
1763.8862
1763.8814
1763.8767
1763.872
1763.8673
1763.8626
1763.8579
1763.8532
1763.8485
1763.8438
1763.8391
1763.8343
1763.8296
1763.8249
1763.8202
1763.8155
1763.8108
1763.8061
1763.8014
1763.7967
1763.792
1763.7872
1763.7825
1763.7778
1763.7731
1763.7684
1763.7637
1763.759
1763.7543
1763.7496
1763.7449
1763.7401
1763.7354
1763.7307
1763.726
1763.7213
1763.7166
1763.7119
1763.7072
1763.7025
1763.6978
1763.693
1763.6883
1763.6836
1763.6789
1763.6742
1763.6695
1763.6648
1763.6601
1763.6554
1763.6507
1763.6459
1763.6412
1763.6365
1763.6318
1763.6271
1763.6224
1763.6177
1763.613
1763.6083
1763.6036
1763.5988
1763.5941
1763.5894
1763.5847
1763.58
1763.5753
1763.5706
1763.5659
1763.5612
1763.5565
1763.5517
1763.547
1763.5423
1763.5376
1763.5329
1763.5282
1763.5235
1763.5188
1763.5141
1763.5094
1763.5046
1763.4999
1763.4952
1763.4905
1763.4858
1763.4811
1763.4764
1763.4717
1763.467
1763.4623
1763.4575
1763.4528
1763.4481
1763.4434
1763.4387
1763.434
1763.4293
1763.4246
1763.4199
1763.4152
1763.4104
1763.4057
1763.401
1763.3963
1763.3916
1763.3869
1763.3822
1763.3775
1763.3728
1763.3681
1763.3633
1763.3586
1763.3539
1763.3492
1763.3445
1763.3398
1763.3351
1763.3304
1763.3257
1763.321
1763.3162
1763.3115
1763.3068
1763.3021
1763.2974
1763.2927
1763.288
1763.2833
1763.2786
1763.2739
1763.2691
1763.2644
1763.2597
1763.255
1763.2503
1763.2456
1763.2409
1763.2362
1763.2315
1763.2268
1763.222
1763.2173
1763.2126
1763.2079
1763.2032
1763.1985
1763.1938
1763.1891
1763.1844
1763.1797
1763.1749
1763.1702
1763.1655
1763.1608
1763.1561
1763.1514
1763.1467
1763.142
1763.1373
1763.1326
1763.1278
1763.1231
1763.1184
1763.1137
1763.109
1763.1043
1763.0996
1763.0949
1763.0902
1763.0855
1763.0807
1763.076
1763.0713
1763.0666
1763.0619
1763.0572
1763.0525
1763.0478
1763.0431
1763.0384
1763.0336
1763.0289
1763.0242
1763.0195
1763.0148
1763.0101
1763.0054
1763.0007
1762.996
1762.9913
1762.9865
1762.9818
1762.9771
1762.9724
1762.9677
1762.963
1762.9583
1762.9536
1762.9489
1762.9442
1762.9394
1762.9347
1762.93
1762.9253
1762.9206
1762.9159
1762.9112
1762.9065
1762.9018
1762.8971
1762.8923
1762.8876
1762.8829
1762.8782
1762.8735
1762.8688
1762.8641
1762.8594
1762.8547
1762.85
1762.8452
1762.8405
1762.8358
1762.8311
1762.8264
1762.8217
1762.817
1762.8123
1762.8076
1762.8029
1762.7981
1762.7934
1762.7887
1762.784
1762.7793
1762.7746
1762.7699
1762.7652
1762.7605
1762.7558
1762.751
1762.7463
1762.7416
1762.7369
1762.7322
1762.7275
1762.7228
1762.7181
1762.7134
1762.7087
1762.7039
1762.6992
1762.6945
1762.6898
1762.6851
1762.6804
1762.6757
1762.671
1762.6663
1762.6616
1762.6568
1762.6521
1762.6474
1762.6427
1762.638
1762.6333
1762.6286
1762.6239
1762.6192
1762.6145
1762.6097
1762.605
1762.6003
1762.5956
1762.5909
1762.5862
1762.5815
1762.5768
1762.5721
1762.5674
1762.5626
1762.5579
1762.5532
1762.5485
1762.5438
1762.5391
1762.5344
1762.5297
1762.525
1762.5203
1762.5155
1762.5108
1762.5061
1762.5014
1762.4967
1762.492
1762.4873
1762.4826
1762.4779
1762.4732
1762.4684
1762.4637
1762.459
1762.4543
1762.4496
1762.4449
1762.4402
1762.4355
1762.4308
1762.4261
1762.4213
1762.4166
1762.4119
1762.4072
1762.4025
1762.3978
1762.3931
1762.3884
1762.3837
1762.379
1762.3742
1762.3695
1762.3648
1762.3601
1762.3554
1762.3507
1762.346
1762.3413
1762.3366
1762.3319
1762.3271
1762.3224
1762.3177
1762.313
1762.3083
1762.3036
1762.2989
1762.2942
1762.2895
1762.2848
1762.28
1762.2753
1762.2706
1762.2659
1762.2612
1762.2565
1762.2518
1762.2471
1762.2424
1762.2377
1762.2329
1762.2282
1762.2235
1762.2188
1762.2141
1762.2094
1762.2047
1762.2
1762.1953
1762.1906
1762.1858
1762.1811
1762.1764
1762.1717
1762.167
1762.1623
1762.1576
1762.1529
1762.1482
1762.1435
1762.1387
1762.134
1762.1293
1762.1246
1762.1199
1762.1152
1762.1105
1762.1058
1762.1011
1762.0964
1762.0916
1762.0869
1762.0822
1762.0775
1762.0728
1762.0681
1762.0634
1762.0587
1762.054
1762.0493
1762.0445
1762.0398
1762.0351
1762.0304
1762.0257
1762.021
1762.0163
1762.0116
1762.0069
1762.0022
1761.9974
1761.9927
1761.988
1761.9833
1761.9786
1761.9739
1761.9692
1761.9645
1761.9598
1761.9551
1761.9503
1761.9456
1761.9409
1761.9362
1761.9315
1761.9268
1761.9221
1761.9174
1761.9127
1761.908
1761.9032
1761.8985
1761.8938
1761.8891
1761.8844
1761.8797
1761.875
1761.8703
1761.8656
1761.8609
1761.8561
1761.8514
1761.8467
1761.842
1761.8373
1761.8326
1761.8279
1761.8232
1761.8185
1761.8138
1761.809
1761.8043
1761.7996
1761.7949
1761.7902
1761.7855
1761.7808
1761.7761
1761.7714
1761.7667
1761.7619
1761.7572
1761.7525
1761.7478
1761.7431
1761.7384
1761.7337
1761.729
1761.7243
1761.7196
1761.7148
1761.7101
1761.7054
1761.7007
1761.696
1761.6913
1761.6866
1761.6819
1761.6772
1761.6725
1761.6677
1761.663
1761.6583
1761.6536
1761.6489
1761.6442
1761.6395
1761.6348
1761.6301
1761.6254
1761.6206
1761.6159
1761.6112
1761.6065
1761.6018
1761.5971
1761.5924
1761.5877
1761.583
1761.5783
1761.5735
1761.5688
1761.5641
1761.5594
1761.5547
1761.55
1761.5453
1761.5406
1761.5359
1761.5312
1761.5264
1761.5217
1761.517
1761.5123
1761.5076
1761.5029
1761.4982
1761.4935
1761.4888
1761.4841
1761.4793
1761.4746
1761.4699
1761.4652
1761.4605
1761.4558
1761.4511
1761.4464
1761.4417
1761.437
1761.4322
1761.4275
1761.4228
1761.4181
1761.4134
1761.4087
1761.404
1761.3993
1761.3946
1761.3899
1761.3851
1761.3804
1761.3757
1761.371
1761.3663
1761.3616
1761.3569
1761.3522
1761.3475
1761.3428
1761.338
1761.3333
1761.3286
1761.3239
1761.3192
1761.3145
1761.3098
1761.3051
1761.3004
1761.2957
1761.2909
1761.2862
1761.2815
1761.2768
1761.2721
1761.2674
1761.2627
1761.258
1761.2533
1761.2486
1761.2438
1761.2391
1761.2344
1761.2297
1761.225
1761.2203
1761.2156
1761.2109
1761.2062
1761.2015
1761.1967
1761.192
1761.1873
1761.1826
1761.1779
1761.1732
1761.1685
1761.1638
1761.1591
1761.1544
1761.1496
1761.1449
1761.1402
1761.1355
1761.1308
1761.1261
1761.1214
1761.1167
1761.112
1761.1073
1761.1025
1761.0978
1761.0931
1761.0884
1761.0837
1761.079
1761.0743
1761.0696
1761.0649
1761.0602
1761.0554
1761.0507
1761.046
1761.0413
1761.0366
1761.0319
1761.0272
1761.0225
1761.0178
1761.0131
1761.0083
1761.0036
1760.9989
1760.9942
1760.9895
1760.9848
1760.9801
1760.9754
1760.9707
1760.966
1760.9612
1760.9565
1760.9518
1760.9471
1760.9424
1760.9377
1760.933
1760.9283
1760.9236
1760.9189
1760.9141
1760.9094
1760.9047
1760.9
1760.8953
1760.8906
1760.8859
1760.8812
1760.8765
1760.8718
1760.867
1760.8623
1760.8576
1760.8529
1760.8482
1760.8435
1760.8388
1760.8341
1760.8294
1760.8247
1760.8199
1760.8152
1760.8105
1760.8058
1760.8011
1760.7964
1760.7917
1760.787
1760.7823
1760.7776
1760.7728
1760.7681
1760.7634
1760.7587
1760.754
1760.7493
1760.7446
1760.7399
1760.7352
1760.7305
1760.7257
1760.721
1760.7163
1760.7116
1760.7069
1760.7022
1760.6975
1760.6928
1760.6881
1760.6834
1760.6786
1760.6739
1760.6692
1760.6645
1760.6598
1760.6551
1760.6504
1760.6457
1760.641
1760.6363
1760.6315
1760.6268
1760.6221
1760.6174
1760.6127
1760.608
1760.6033
1760.5986
1760.5939
1760.5892
1760.5844
1760.5797
1760.575
1760.5703
1760.5656
1760.5609
1760.5562
1760.5515
1760.5468
1760.5421
1760.5373
1760.5326
1760.5279
1760.5232
1760.5185
1760.5138
1760.5091
1760.5044
1760.4997
1760.495
1760.4902
1760.4855
1760.4808
1760.4761
1760.4714
1760.4667
1760.462
1760.4573
1760.4526
1760.4479
1760.4431
1760.4384
1760.4337
1760.429
1760.4243
1760.4196
1760.4149
1760.4102
1760.4055
1760.4008
1760.396
1760.3913
1760.3866
1760.3819
1760.3772
1760.3725
1760.3678
1760.3631
1760.3584
1760.3537
1760.3489
1760.3442
1760.3395
1760.3348
1760.3301
1760.3254
1760.3207
1760.316
1760.3113
1760.3066
1760.3018
1760.2971
1760.2924
1760.2877
1760.283
1760.2783
1760.2736
1760.2689
1760.2642
1760.2595
1760.2547
1760.25
1760.2453
1760.2406
1760.2359
1760.2312
1760.2265
1760.2218
1760.2171
1760.2124
1760.2076
1760.2029
1760.1982
1760.1935
1760.1888
1760.1841
1760.1794
1760.1747
1760.17
1760.1653
1760.1605
1760.1558
1760.1511
1760.1464
1760.1417
1760.137
1760.1323
1760.1276
1760.1229
1760.1182
1760.1134
1760.1087
1760.104
1760.0993
1760.0946
1760.0899
1760.0852
1760.0805
1760.0758
1760.0711
1760.0663
1760.0616
1760.0569
1760.0522
1760.0475
1760.0428
1760.0381
1760.0334
1760.0287
1760.024
1760.0192
1760.0145
1760.0098
1760.0051
1760.0004
1759.9957
1759.991
1759.9863
1759.9816
1759.9769
1759.9721
1759.9674
1759.9627
1759.958
1759.9533
1759.9486
1759.9439
1759.9392
1759.9345
1759.9298
1759.925
1759.9203
1759.9156
1759.9109
1759.9062
1759.9015
1759.8968
1759.8921
1759.8874
1759.8827
1759.8779
1759.8732
1759.8685
1759.8638
1759.8591
1759.8544
1759.8497
1759.845
1759.8403
1759.8356
1759.8308
1759.8261
1759.8214
1759.8167
1759.812
1759.8073
1759.8026
1759.7979
1759.7932
1759.7885
1759.7837
1759.779
1759.7743
1759.7696
1759.7649
1759.7602
1759.7555
1759.7508
1759.7461
1759.7414
1759.7366
1759.7319
1759.7272
1759.7225
1759.7178
1759.7131
1759.7084
1759.7037
1759.699
1759.6943
1759.6895
1759.6848
1759.6801
1759.6754
1759.6707
1759.666
1759.6613
1759.6566
1759.6519
1759.6472
1759.6424
1759.6377
1759.633
1759.6283
1759.6236
1759.6189
1759.6142
1759.6095
1759.6048
1759.6001
1759.5953
1759.5906
1759.5859
1759.5812
1759.5765
1759.5718
1759.5671
1759.5624
1759.5577
1759.553
1759.5482
1759.5435
1759.5388
1759.5341
1759.5294
1759.5247
1759.52
1759.5153
1759.5106
1759.5059
1759.5011
1759.4964
1759.4917
1759.487
1759.4823
1759.4776
1759.4729
1759.4682
1759.4635
1759.4588
1759.454
1759.4493
1759.4446
1759.4399
1759.4352
1759.4305
1759.4258
1759.4211
1759.4164
1759.4117
1759.4069
1759.4022
1759.3975
1759.3928
1759.3881
1759.3834
1759.3787
1759.374
1759.3693
1759.3646
1759.3598
1759.3551
1759.3504
1759.3457
1759.341
1759.3363
1759.3316
1759.3269
1759.3222
1759.3175
1759.3127
1759.308
1759.3033
1759.2986
1759.2939
1759.2892
1759.2845
1759.2798
1759.2751
1759.2704
1759.2656
1759.2609
1759.2562
1759.2515
1759.2468
1759.2421
1759.2374
1759.2327
1759.228
1759.2233
1759.2185
1759.2138
1759.2091
1759.2044
1759.1997
1759.195
1759.1903
1759.1856
1759.1809
1759.1762
1759.1714
1759.1667
1759.162
1759.1573
1759.1526
1759.1479
1759.1432
1759.1385
1759.1338
1759.1291
1759.1243