/*--------------------------------*- C++ -*----------------------------------*\
| =========                 |                                                 |
| \\      /  F ield         | OpenFOAM: The Open Source CFD Toolbox           |
|  \\    /   O peration     | Version:  5.x                                   |
|   \\  /    A nd           | Web:      www.OpenFOAM.org                      |
|    \\/     M anipulation  |                                                 |
\*---------------------------------------------------------------------------*/
FoamFile
{
    version     2.0;
    format      ascii;
    class       volScalarField;
    location    "0.004";
    object      kstar;
}
// * * * * * * * * * * * * * * * * * * * * * * * * * * * * * * * * * * * * * //

dimensions      [0 0 0 0 0 0 0];

internalField   nonuniform List<scalar> 
7950
(
0.1040487406
0.1040523813
0.104129194
0.1042442282
0.1043972123
0.1045873642
0.104815232
0.1050821173
0.1053897307
0.1057401594
0.1061358733
0.10657974
0.1070750619
0.1076256283
0.1082357779
0.1089104715
0.1096553826
0.1104770043
0.1113827779
0.1123812498
0.1134822593
0.1146971696
0.1160391486
0.1175235169
0.119168177
0.1209941509
0.1230262568
0.1252939664
0.1278324972
0.1306842328
0.1339006232
0.1375446093
0.1416936325
0.1464441416
0.1519208663
0.1582802711
0.1657149414
0.1745021739
0.1850048246
0.1976991104
0.2132777921
0.2327276397
0.2575129826
0.2898904072
0.3334924529
0.3944924616
0.484137225
0.6247654171
0.8649642944
1.319184495
0.1891184989
0.1892714443
0.1897015648
0.1902241099
0.1908902138
0.1917093723
0.19268505
0.1938231773
0.1951314675
0.196618646
0.19829454
0.2001704538
0.2022593243
0.2045758914
0.2071369166
0.2099614234
0.2130710082
0.2164901816
0.2202467607
0.2243722975
0.2289027977
0.2338796702
0.2393504077
0.2453686532
0.2519962595
0.2593051312
0.2673785034
0.2763127421
0.2862207832
0.2972357267
0.309513617
0.3232398388
0.3386315858
0.355947996
0.3755155934
0.397716519
0.4229588976
0.4519271757
0.4853051686
0.5238428847
0.5687392191
0.6213808348
0.6835397336
0.7575315903
0.846432961
0.9545305769
1.088276168
1.257417428
1.475228301
1.817716465
0.3270279397
0.3274117431
0.3284608906
0.3296641261
0.3311629896
0.3329800657
0.3351212002
0.337598096
0.3404259962
0.3436215866
0.3472032202
0.3511916963
0.3556104556
0.3604857703
0.3658469867
0.3717267767
0.3781614731
0.3851913987
0.392861218
0.4012203912
0.4103239499
0.4202335485
0.431017521
0.4427499026
0.4555133095
0.4694005372
0.4845143574
0.5009685877
0.5188909839
0.538424793
0.559728483
0.5829789124
0.6083694035
0.6361204009
0.6664956687
0.6997600288
0.7361759559
0.7762740802
0.8203699632
0.8687361843
0.9220480609
0.9808724747
1.045870976
1.117868355
1.197942729
1.287717899
1.390005265
1.509209792
1.650654256
1.880780837
0.492756873
0.4938894194
0.4959968548
0.4980542052
0.50048053
0.503349589
0.5066715398
0.5104652149
0.5147544238
0.5195620481
0.5249102966
0.5308228664
0.5373363868
0.5444725019
0.5522657015
0.560760532
0.5699868498
0.5799905408
0.5908169883
0.6025139268
0.6151336552
0.6287345296
0.6433765384
0.6591178962
0.6760180745
0.6941560846
0.7136528852
0.7344814584
0.7567458249
0.7806380468
0.8061655279
0.8334303408
0.8625420654
0.8936130503
0.9267719399
0.9621247835
0.9997996957
1.040118839
1.083116735
1.128836248
1.177679072
1.229899323
1.285848241
1.346075297
1.411506733
1.483959847
1.567157975
1.667347853
1.795559492
2.090774738
0.6383009
0.6400064454
0.6429778779
0.6457285137
0.6488762889
0.6525229231
0.6566792846
0.6613678031
0.6666157735
0.6724473082
0.6788844624
0.6859517245
0.6936845044
0.7021007941
0.7112337854
0.7211226984
0.7317904541
0.7432755782
0.7556132727
0.7688391574
0.7829915381
0.7981113442
0.8142364832
0.831399785
0.8496362843
0.8690008419
0.8895611061
0.9112533957
0.9341598727
0.9584131824
0.9839637973
1.01085679
1.039138157
1.068850743
1.100041952
1.132735437
1.166992437
1.203008458
1.240689205
1.279995255
1.321214884
1.364483265
1.410035585
1.458307587
1.510114106
1.567134001
1.632815089
1.712934525
1.819051031
2.080676952
0.7389923652
0.7416272728
0.7455157794
0.7488647626
0.7525635624
0.7567652672
0.7614857154
0.7667526254
0.7725973965
0.7790446271
0.7861154128
0.7938338249
0.8022310791
0.8113223082
0.8211375346
0.8317083208
0.843051741
0.8551980755
0.8681730454
0.8819999548
0.8966988867
0.9123023982
0.9288861101
0.9463518714
0.9647376276
0.9841890382
1.004640002
1.026039189
1.04846675
1.072000504
1.096574829
1.122208561
1.148920268
1.176725753
1.205642274
1.235675428
1.266879198
1.299385744
1.333086581
1.367972955
1.4043198
1.44228848
1.482176879
1.524541111
1.570430967
1.622006804
1.683697172
1.763121288
1.87680553
2.202432455
0.7971406698
0.8001806832
0.804514229
0.8082154672
0.8122562527
0.8167985192
0.8218589654
0.8274666081
0.8336527029
0.8404405127
0.8478496778
0.8559028829
0.8646269372
0.874034806
0.8841529222
0.8950063488
0.9066079939
0.9189815243
0.9321453251
0.9461148705
0.9609045736
0.976542286
0.993071284
1.010400842
1.028573128
1.04769412
1.067684307
1.088498094
1.110201094
1.132835772
1.156332152
1.180694561
1.205926608
1.232029534
1.25900535
1.286852873
1.31561904
1.345392838
1.376064461
1.407640874
1.440371172
1.474411106
1.510055551
1.547857616
1.588860963
1.635181935
1.691074258
1.763877397
1.870099087
2.183188776
0.827337699
0.8308830239
0.835624014
0.8396040895
0.8438971723
0.8486851421
0.8539878669
0.8598369049
0.8662641952
0.8732918996
0.8809384345
0.8892251288
0.8981751334
0.9078001813
0.9181235913
0.9291655091
0.9409363588
0.953455256
0.9667346772
0.9807802369
0.9956064489
1.011282666
1.027737814
1.044910463
1.06293245
1.081804296
1.101457354
1.121861565
1.143071438
1.165107716
1.187904891
1.211462356
1.235779113
1.260852957
1.286683662
1.313275016
1.340676326
1.368956717
1.398026185
1.427923213
1.45889962
1.491142494
1.524996473
1.561093828
1.600616476
1.645946095
1.701868617
1.776762994
1.890079002
2.242953238
0.8409401279
0.8446492111
0.8495348383
0.8536583084
0.85809721
0.8630307758
0.8684792402
0.8744740822
0.8810460821
0.8882161118
0.8960015578
0.9044224052
0.9134990495
0.9232423243
0.9336730442
0.9448079199
0.9566555973
0.9692315438
0.9825445135
0.9965984596
1.011409532
1.027027882
1.043380324
1.06042315
1.078268931
1.096904814
1.116263561
1.1363214
1.157123603
1.1786771
1.200920555
1.223849771
1.247460228
1.271746783
1.296706945
1.322345999
1.348710089
1.375851086
1.403689362
1.432275246
1.461847493
1.492594163
1.524860459
1.55927656
1.597015757
1.640417326
1.694125255
1.766298959
1.876021122
2.222314514
0.8460002526
0.8499247086
0.8549541692
0.8591903893
0.8637346449
0.8687711566
0.8743218058
0.8804189798
0.8870929663
0.8943635631
0.9022472962
0.9107629459
0.9199288029
0.929754999
0.9402602688
0.9514588813
0.9633584651
0.9759713064
0.9892997187
1.003347346
1.018167549
1.033731866
1.049975999
1.066932807
1.084648529
1.103110813
1.122259645
1.14207619
1.162598834
1.183826424
1.205703026
1.228223479
1.251382894
1.275176467
1.299602959
1.324671705
1.350429355
1.376920393
1.404080063
1.431975021
1.460844654
1.490893696
1.522492684
1.556310477
1.593585854
1.636781074
1.690785689
1.764242545
1.877706308
2.244098231
0.8464377816
0.8504129788
0.8554715701
0.8597565575
0.8643540507
0.8694438637
0.8750478934
0.8811980614
0.8879235836
0.8952433527
0.9031731734
0.9117308292
0.9209330388
0.9307893611
0.9413169581
0.9525282802
0.9644298905
0.9770318338
0.9903351881
1.004345577
1.019108738
1.034591217
1.050734713
1.067572449
1.085142994
1.103428403
1.122371478
1.14195659
1.162216685
1.183146074
1.204691568
1.226846255
1.249605333
1.27296309
1.296918028
1.321480634
1.346695134
1.372598299
1.39913292
1.426371215
1.454544421
1.483856924
1.514677899
1.547671532
1.584064051
1.626278176
1.679090045
1.75096249
1.862170826
2.2225528
0.8446988698
0.8487589653
0.8538562878
0.85817869
0.8628113793
0.8679344606
0.8735705726
0.8797518022
0.886506663
0.8938532865
0.9018068536
0.9103842427
0.9196009345
0.9294660008
0.9399953256
0.9512001719
0.9630860285
0.9756585599
0.9889174044
1.002895404
1.017589962
1.032968297
1.049019343
1.065742442
1.083176608
1.101302714
1.120065948
1.139450942
1.159486696
1.180187954
1.201463329
1.223308803
1.245763603
1.268788679
1.292387126
1.316575331
1.341397446
1.366886961
1.392995744
1.419804427
1.44754343
1.476418009
1.506817927
1.53942371
1.575472146
1.617441323
1.670195033
1.742370808
1.85483791
2.223100526
0.8417620312
0.8458270048
0.8509119349
0.8552407009
0.859882259
0.865012932
0.870655226
0.8768407125
0.8835970916
0.8909418498
0.8988896483
0.9074566629
0.9166574171
0.9265005687
0.937000992
0.948168874
0.9600088866
0.9725255378
0.9857191525
0.9996204992
1.014223991
1.029496604
1.045428095
1.062018706
1.079302753
1.097259223
1.115834944
1.135015858
1.154829588
1.175284612
1.19629443
1.21785649
1.240005362
1.262704037
1.285955778
1.309777435
1.334211543
1.359287958
1.384963362
1.411320712
1.438584681
1.466959799
1.496832275
1.528875561
1.564312789
1.60558464
1.657461385
1.728425978
1.839084459
2.201546785
0.8383087447
0.8423985952
0.8474789518
0.8518096184
0.8564516808
0.8615802573
0.8672180957
0.8733965173
0.8801427363
0.8874735948
0.895403396
0.9039476157
0.9131200018
0.9229289857
0.9333884951
0.9445061239
0.9562852219
0.968746616
0.9818634984
0.9956664373
1.010177145
1.025339251
1.041145923
1.057599971
1.07473129
1.09253281
1.110926039
1.12990027
1.149510432
1.169738262
1.190504884
1.211810637
1.23368722
1.256099638
1.279051757
1.302561253
1.326670065
1.351406282
1.376731569
1.40273221
1.429630591
1.457634032
1.487131948
1.518800746
1.553867352
1.594778525
1.646313756
1.716974594
1.827499054
2.19135845
0.8345472809
0.8386220966
0.8436735701
0.8479901391
0.8526186111
0.8577310925
0.8633501423
0.8695066209
0.8762271265
0.8835280332
0.8914232262
0.8999276738
0.9090544837
0.9188117574
0.9292126896
0.9402641888
0.9519694995
0.9643479175
0.9773739628
0.9910765731
1.005474604
1.020513509
1.036186017
1.052494983
1.069468516
1.08709659
1.105303305
1.124079738
1.1434773
1.163475694
1.18399919
1.205048722
1.226653441
1.24877969
1.271431454
1.294626511
1.318405566
1.342794687
1.367758419
1.393383718
1.419888587
1.447478763
1.476539478
1.507739298
1.542290458
1.582604397
1.633379358
1.70297787
1.811875678
2.170104035
0.830676676
0.8347473947
0.839774619
0.844074886
0.848685377
0.8537765873
0.8593711092
0.8654995116
0.8721879465
0.8794523148
0.8873060941
0.8957630568
0.9048349661
0.9145396224
0.9248753609
0.9358472367
0.9474733777
0.9597627907
0.9726926242
0.9862880784
1.00056586
1.015483726
1.031017255
1.04717052
1.063987563
1.081442413
1.099463537
1.118044814
1.137234723
1.157011723
1.177302784
1.19810936
1.219458749
1.241318553
1.263693001
1.286600164
1.310080012
1.334157487
1.358800058
1.384095789
1.41026002
1.437498614
1.466195549
1.497016661
1.531168656
1.571049761
1.621329806
1.690315137
1.798388943
2.154781948
0.826729484
0.8307755344
0.8357664221
0.8400419197
0.8446267611
0.849689
0.8552509824
0.8613428561
0.8679902858
0.8752088185
0.8830116173
0.8914120654
0.9004216328
0.9100576457
0.9203181828
0.9312080109
0.9427450237
0.9549370553
0.9677618382
0.9812439013
0.995398117
1.010182523
1.025573084
1.04157427
1.058227777
1.075506595
1.093341038
1.11172586
1.130707291
1.150262831
1.170321556
1.190885152
1.211979346
1.233572615
1.255669179
1.278287015
1.301465126
1.325227165
1.349542356
1.374498599
1.400307565
1.427173025
1.455474437
1.485869421
1.519549559
1.558879353
1.608455042
1.676454037
1.782994722
2.133938031
0.8227707789
0.8267981361
0.8317553256
0.836004519
0.8405603807
0.8455924287
0.8511190845
0.8571692062
0.8637727673
0.8709421827
0.8786903413
0.8870306788
0.8959741003
0.9055368022
0.9157184312
0.9265222163
0.9379683855
0.9500580856
0.9627700526
0.9761355205
0.9901620106
1.004808623
1.020052551
1.03589873
1.052386711
1.069488984
1.087137497
1.105327633
1.124103826
1.143442956
1.16327586
1.183604402
1.204453102
1.225791243
1.2476231
1.26996665
1.292860162
1.316326518
1.340336639
1.364978455
1.390460919
1.416986582
1.444931902
1.474948897
1.508218735
1.547083741
1.596094598
1.663341774
1.768750981
2.116323153
0.8187983957
0.8227960396
0.8277132521
0.8319318927
0.8364555591
0.8414517247
0.846938614
0.8529446849
0.8594995222
0.8666152971
0.8743046507
0.8825807109
0.8914541464
0.9009406061
0.9110395031
0.921753944
0.9331033927
0.9450883735
0.9576881854
0.9709331188
0.9848296519
0.9993372258
1.014433386
1.030123216
1.046444678
1.063369793
1.08083187
1.098826757
1.117397329
1.136519981
1.156127049
1.176220475
1.196823729
1.217906693
1.239473609
1.261542242
1.284150089
1.307319135
1.331021433
1.355344304
1.380493454
1.40666911
1.434243009
1.463858837
1.496682445
1.535023543
1.583364461
1.64967393
1.753607043
2.095928866
0.8148376833
0.8188093793
0.8236878258
0.8278750145
0.8323653042
0.8373244544
0.8427700327
0.8487293573
0.8552329432
0.8622924358
0.8699198922
0.8781282532
0.8869279676
0.8963341991
0.9063461835
0.9169669112
0.9282152567
0.9400915888
0.9525754973
0.9656966055
0.9794605792
0.993827284
1.00877453
1.024307456
1.040462774
1.057212163
1.07449009
1.092292747
1.110661682
1.129573008
1.148960321
1.168825576
1.189191407
1.21002825
1.231340284
1.253145113
1.275479563
1.298365018
1.321774573
1.345795028
1.370629362
1.396475995
1.423702875
1.452946765
1.485360967
1.523229557
1.570982423
1.63648996
1.739174808
2.077473441
0.8108837035
0.81482386
0.8196611753
0.8238155638
0.8282709867
0.8331912479
0.8385937097
0.8445053651
0.8509562439
0.8579577576
0.865521706
0.8736607313
0.8823850453
0.8917093841
0.901632816
0.912158237
0.9233040073
0.9350701218
0.9474365737
0.9604323056
0.9740623485
0.9882869112
1.003084065
1.018458957
1.03444717
1.051020202
1.068113531
1.08572356
1.103890696
1.122590845
1.141758696
1.16139617
1.181525141
1.20211647
1.223174224
1.244715741
1.266777155
1.289379168
1.312495589
1.336212332
1.360729431
1.386242813
1.413115669
1.441976422
1.473963104
1.511328191
1.55843702
1.623043726
1.724297578
2.057538272
0.8069445142
0.8108542491
0.8156507156
0.819771106
0.824189967
0.829069469
0.8344268248
0.8402887334
0.8466848133
0.853626261
0.8611246662
0.8691924159
0.8778395031
0.8870803072
0.8969137799
0.9073426967
0.9183849703
0.9300402981
0.9422889704
0.9551592742
0.9686557545
0.9827389431
0.9973870896
1.012605287
1.028428188
1.044827203
1.061738682
1.07915917
1.097128108
1.115621293
1.134574395
1.153989279
1.173887198
1.194239437
1.215049946
1.236335832
1.258132666
1.280460634
1.303294179
1.326718474
1.350930941
1.376125296
1.402660581
1.431157905
1.462741739
1.499637325
1.546155397
1.609948764
1.709920791
2.038876169
0.8030174527
0.806893703
0.8116478264
0.8157330592
0.8201143184
0.8249520415
0.8302632382
0.8360743074
0.8424144597
0.8492946903
0.856726379
0.8647216687
0.8732903525
0.8824464763
0.892188862
0.9025201727
0.9134579116
0.9250015258
0.937131536
0.9498756634
0.9632380283
0.9771794554
0.9916783683
1.00673977
1.022397474
1.03862286
1.055353073
1.072584714
1.090356365
1.108643766
1.127383438
1.146577159
1.166245623
1.186360432
1.206925397
1.227957347
1.249491223
1.271546691
1.294098632
1.317231223
1.341139119
1.366013511
1.392208687
1.420337506
1.451509366
1.487918838
1.533815059
1.596739192
1.695322704
2.019398023
0.7991077272
0.8029517394
0.8076641897
0.8117140512
0.8160572433
0.8208526501
0.826117077
0.8318767289
0.8381603737
0.8449788171
0.8523432409
0.8602655376
0.8687553394
0.8778263844
0.8874773787
0.8977108695
0.9085439839
0.9199759488
0.9319874881
0.9446058159
0.9578346989
0.9716352398
0.9859860207
1.00089192
1.016386032
1.032439762
1.048990965
1.066036286
1.083613541
1.101698452
1.120228341
1.139204894
1.158648315
1.178530523
1.198855211
1.219638944
1.240916098
1.262705903
1.284983718
1.307832744
1.331445112
1.356009693
1.381876436
1.409650665
1.440427875
1.476374807
1.521685685
1.583800115
1.681099705
2.000792375
0.7952124258
0.7990223236
0.8036922296
0.8077061112
0.8120107102
0.8167633022
0.8219804946
0.8276881891
0.833914784
0.8406709094
0.8479675489
0.8558163785
0.8642268385
0.8732123918
0.8827716296
0.8929069821
0.903635235
0.9149554276
0.9268484431
0.9393410087
0.9524365919
0.9660965781
0.9802996736
0.9950506256
1.010381868
1.02626487
1.042638141
1.05949832
1.076882513
1.094766487
1.113088269
1.131849437
1.151069737
1.170721355
1.190807836
1.211345446
1.232367991
1.253894269
1.275899921
1.298467098
1.321785311
1.346040897
1.371579123
1.398997218
1.429375897
1.464852153
1.509561053
1.570834608
1.666787215
1.981764652
0.7913349666
0.7951116943
0.7997396759
0.8037176184
0.8079835315
0.8126931865
0.8178630106
0.8235186064
0.8296880515
0.8363817719
0.8436105877
0.8513859397
0.8597171232
0.8686172979
0.8780849938
0.88812251
0.8987462919
0.9099552533
0.9217303827
0.9340979647
0.9470612119
0.960581781
0.9746384992
0.9892359723
1.004406038
1.020120249
1.036317735
1.052995122
1.070188867
1.08787479
1.105991595
1.124540774
1.143541644
1.162966645
1.182819205
1.203115312
1.223888224
1.245156365
1.266895697
1.289187342
1.312218339
1.336172692
1.361391219
1.388463532
1.418456519
1.453479344
1.497612191
1.558086806
1.652768551
1.963358097
0.787472988
0.791215507
0.7958011509
0.799742925
0.8039699846
0.8086365765
0.8137589214
0.8193623293
0.8254745439
0.8321058162
0.8392667805
0.8469686869
0.8552206375
0.8640355556
0.8734118752
0.8833517691
0.893871382
0.9049694935
0.9166271893
0.9288703321
0.9417019092
0.9550838381
0.968995064
0.9834400307
0.9984500274
1.013996712
1.030019804
1.046515873
1.063520781
1.081010424
1.098924142
1.117263306
1.136046838
1.155247416
1.174868311
1.194925222
1.21545087
1.236463291
1.257938668
1.279957039
1.302702938
1.326357855
1.351258059
1.377985217
1.407591815
1.442158155
1.485707367
1.545367289
1.638742489
1.944772058
0.783628917
0.7873379473
0.7918818242
0.7957876258
0.7999759568
0.8045996035
0.8096746045
0.8152259902
0.8212811418
0.8278501861
0.8349435708
0.8425723379
0.8507454443
0.8594755663
0.8687610202
0.8786038908
0.8890200367
0.9000080903
0.9115492517
0.9236689678
0.9363700191
0.9496145985
0.9633817547
0.9776757764
0.992527428
1.007908512
1.023759281
1.040076258
1.056894731
1.074190724
1.091904156
1.110036288
1.128605695
1.147585276
1.166978163
1.186799769
1.20708231
1.227843467
1.249059674
1.270809933
1.293276333
1.316638017
1.341226882
1.367617037
1.396847115
1.430970015
1.473954821
1.532830804
1.624956725
1.926649625
0.7798009681
0.7834760258
0.787978023
0.7918478618
0.7959975339
0.8005783465
0.8056061446
0.8111056731
0.8171039898
0.823611058
0.8306371516
0.8381931247
0.8462877615
0.8549335106
0.86412861
0.8738750212
0.8841883237
0.895067037
0.9064924402
0.9184895941
0.9310610894
0.9441693794
0.9577936136
0.9719379166
0.986632564
1.001849495
1.017529504
1.033669039
1.050302854
1.067407081
1.084922217
1.102849401
1.121206871
1.139967731
1.159134959
1.178723693
1.198765633
1.219278103
1.240237715
1.261722412
1.283911856
1.306982733
1.331262497
1.357317531
1.386172439
1.419852122
1.462270532
1.520356394
1.61121516
1.908495265
0.775990692
0.7796323931
0.7840930446
0.7879272073
0.7920384701
0.7965766976
0.8015575611
0.8070055451
0.8129474168
0.819392933
0.8263522125
0.8338359043
0.8418526569
0.8504146814
0.859520138
0.8691708732
0.8793822009
0.8901525325
0.9014632221
0.9133389598
0.9257821777
0.9387555586
0.9522383535
0.966234538
0.9807739086
0.9958285552
1.011339782
1.027304003
1.043755437
1.060670318
1.077989725
1.095714689
1.113863107
1.132408298
1.151353107
1.170712388
1.190517358
1.210784994
1.23149213
1.252715665
1.274632884
1.297418165
1.321394641
1.347121211
1.375608946
1.408855765
1.450722718
1.50804207
1.597677609
1.890705262
0.772197083
0.7758052389
0.7802246142
0.7840232496
0.7880963102
0.7925922205
0.7975264625
0.8029232416
0.808809013
0.8151933771
0.8220862858
0.8294982088
0.8374376283
0.8459165439
0.8549330379
0.8644888409
0.8745990034
0.8852618341
0.8964587651
0.9082141173
0.9205301558
0.933369821
0.9467124605
0.9605618904
0.9749474469
0.9898413757
1.005185491
1.02097614
1.037247031
1.053974523
1.071100249
1.088625123
1.10656672
1.124898555
1.143623345
1.16275566
1.182326226
1.202351688
1.222809045
1.243774146
1.265421931
1.287924398
1.311600343
1.33700116
1.365124289
1.397940485
1.439257398
1.495809966
1.584216609
1.872972016
0.7684211423
0.7719962383
0.776374822
0.7801382456
0.7841734131
0.7886273225
0.7935152853
0.7988612351
0.8046913422
0.8110150763
0.8178421949
0.8251829616
0.833045721
0.8414422655
0.8503706019
0.8598323418
0.8698422861
0.8803986388
0.8914829194
0.9031190876
0.9153092514
0.9280165973
0.9412205683
0.9549248314
0.9691582807
0.9838932943
0.9990722149
1.014691326
1.030783837
1.047326218
1.064260658
1.081587985
1.099325437
1.117446715
1.135954445
1.154862917
1.174202353
1.193989105
1.214200357
1.234910913
1.256293447
1.27851766
1.301898101
1.326978915
1.354744258
1.387138433
1.427917455
1.483722076
1.570934372
1.855540154
0.7646619455
0.7682040175
0.7725419983
0.7762704435
0.7802679968
0.7846802467
0.78952232
0.7948178776
0.8005927866
0.8068563652
0.8136182102
0.8208884126
0.8286751567
0.8369900322
0.8458309733
0.8551994799
0.8651101013
0.8755609471
0.8865336161
0.8980517065
0.910117176
0.9226934666
0.9357601179
0.9493206425
0.9634034954
0.9779812129
0.9929966414
1.008445997
1.024362
1.040721251
1.057466479
1.074598402
1.09213395
1.110047022
1.128340114
1.147027245
1.166138168
1.185688915
1.205656833
1.226115703
1.247235921
1.269184882
1.292272918
1.317036888
1.344447709
1.376423336
1.416668004
1.471728186
1.557748578
1.838217256
0.7609201751
0.7644296589
0.7687274809
0.7724212632
0.7763815307
0.7807524998
0.7855490879
0.7907947062
0.7965149195
0.8027188841
0.8094160593
0.8166163345
0.824327762
0.8325617273
0.8413160905
0.8505922694
0.8604045523
0.8707509529
0.8816131425
0.8930143671
0.9049564433
0.9174030657
0.9303338665
0.9437522141
0.9576861317
0.9721083162
0.9869621139
1.002243667
1.017985228
1.034163528
1.050721825
1.067660749
1.084996898
1.102704401
1.120785629
1.139254321
1.158139798
1.177457739
1.197185698
1.217396443
1.238258155
1.259935992
1.282736129
1.307188374
1.334250661
1.36581516
1.405535785
1.459867172
1.544723863
1.821155251
0.757195573
0.7606724024
0.7649302713
0.7685896697
0.7725129633
0.7768429867
0.781594477
0.7867905787
0.7924565611
0.7986014339
0.8052345005
0.8123654836
0.8200022806
0.8281560816
0.8368246782
0.8460093808
0.8557242353
0.8659671681
0.876719929
0.8880054155
0.8998253022
0.9121435378
0.924939852
0.9382174652
0.9520039777
0.9662722464
0.9809661132
0.9960816563
1.011650658
1.027649982
1.044023415
1.060771483
1.077910491
1.095414763
1.113286546
1.131539322
1.150201957
1.169289825
1.188780641
1.20874618
1.229352412
1.250762254
1.273277791
1.297421754
1.324139226
1.355296808
1.394498192
1.448106657
1.531807144
1.804231904
0.7534882108
0.7569329234
0.7611513018
0.7647766573
0.7686633203
0.7729527272
0.7776595433
0.7828065763
0.7884188096
0.7945051306
0.8010746783
0.8081370051
0.8156998737
0.8237742717
0.8323579202
0.8414520333
0.8510704208
0.8612109118
0.8718553421
0.8830262712
0.8947252312
0.9069164246
0.9195796791
0.932718074
0.9463587873
0.9604748474
0.975010586
0.9899620016
1.005360427
1.021182872
1.037373642
1.05393315
1.070877432
1.088180996
1.105845971
1.123885593
1.142328297
1.161189142
1.180446003
1.200169698
1.220524001
1.241669696
1.263904852
1.287745191
1.31412323
1.344880592
1.383571871
1.436470975
1.519038908
1.787542444
0.7497976541
0.7532104181
0.7573895932
0.7609811696
0.764831512
0.7690807007
0.7737432244
0.7788416309
0.7844006151
0.7904289214
0.7969355382
0.8039298565
0.8114194889
0.8194152341
0.8279147485
0.836919144
0.8464419954
0.8564810494
0.8670182226
0.8780757361
0.8896549869
0.9017204306
0.9142519937
0.9272526137
0.9407490597
0.9547145218
0.9690938194
0.9838828926
0.999112618
1.01476014
1.030770286
1.04714337
1.063895144
1.081000313
1.098460888
1.116289858
1.134515218
1.153151736
1.172177447
1.191662208
1.211767644
1.232652367
1.254610471
1.27815081
1.304193421
1.334555114
1.37274176
1.424938735
1.506384913
1.771008
0.7461242755
0.7495054721
0.7536458291
0.7572039398
0.76101829
0.7652276275
0.7698462961
0.7748965512
0.7804027955
0.7863736365
0.7928179219
0.7997448689
0.8071619603
0.8150798092
0.8234959911
0.8324115436
0.8418398038
0.8517784218
0.8622094129
0.8731546685
0.8846154436
0.8965564486
0.9089577147
0.9218220401
0.9351757824
0.9489922981
0.9632169022
0.9778454651
0.9929084208
1.008383056
1.024214692
1.040403563
1.056965152
1.07387436
1.09113308
1.108754046
1.126764837
1.14517994
1.163977551
1.183226572
1.203086526
1.223713921
1.245398895
1.268643585
1.294355834
1.324327987
1.362018197
1.413525098
1.493869957
1.754689275
0.7424677506
0.7458176105
0.7499194574
0.7534443891
0.7572230668
0.7613929076
0.7659680822
0.7709705925
0.7764245595
0.7823384522
0.7887209718
0.7955811793
0.8029264124
0.8107671007
0.8191007594
0.8279283281
0.8372629168
0.8471020976
0.8574279679
0.8682620913
0.8796055942
0.891423438
0.9036957544
0.9164252071
0.9296377571
0.943306923
0.9573785007
0.9718483074
0.9867463347
1.002050006
1.017705155
1.033711923
1.050085522
1.066801047
1.08386028
1.101275717
1.119074515
1.13727088
1.155843168
1.174859348
1.194476859
1.214850099
1.236265346
1.259218068
1.284603994
1.31419138
1.351391103
1.402215989
1.481472337
1.738533289
0.7388284694
0.7421472709
0.7462109705
0.749703026
0.753446355
0.7575770609
0.7621091442
0.7670643517
0.7724665055
0.7783239709
0.7846452946
0.7914393834
0.7987134285
0.8064776928
0.8147296206
0.8234700588
0.8327118911
0.8424526211
0.8526744197
0.8633985329
0.8746259666
0.8863219307
0.8984666614
0.9110626758
0.924135558
0.9376589854
0.9515792275
0.9658920609
0.9806270307
0.9957617033
1.011242421
1.02706924
1.043257092
1.059781268
1.076643469
1.093855944
1.11144543
1.129425848
1.147775737
1.166562144
1.185940449
1.206062996
1.22721226
1.249877151
1.274941513
1.304149807
1.340866572
1.391020475
1.469206729
1.722579805
0.7352060127
0.7384939221
0.7425198338
0.7459792224
0.7496875179
0.753779438
0.7582688143
0.7631771459
0.76852798
0.774329547
0.7805902519
0.7873188501
0.7945223921
0.8022109634
0.8103819516
0.8190361101
0.8281861024
0.837829359
0.8479481344
0.8585633558
0.8696759071
0.8812512478
0.893269716
0.9057337004
0.9186684003
0.9320476562
0.9458182119
0.9599757956
0.9745495236
0.9895171
1.004825371
1.020474307
1.036478577
1.052813664
1.069481167
1.086493106
1.103875809
1.121642928
1.139773163
1.158332657
1.177474764
1.197349777
1.21823643
1.240617151
1.265364023
1.294198119
1.330438103
1.379929457
1.457059276
1.706792091
0.7316009314
0.7348582354
0.7388466742
0.7422737847
0.7459473809
0.7500008096
0.7544478433
0.7593097035
0.7646096518
0.7703557996
0.7765564248
0.7832201149
0.7903538047
0.7979673919
0.8060582026
0.8146269048
0.8236859569
0.8332326955
0.8432494692
0.8537568995
0.8647557399
0.8762117021
0.8881052277
0.9004385854
0.9132365836
0.9264732359
0.9400957623
0.9540998226
0.9685141287
0.9833165256
0.9984543428
1.013927475
1.029750343
1.045898628
1.062373819
1.079187681
1.096366189
1.113922724
1.131836133
1.150171675
1.169080679
1.188711487
1.209339112
1.231439602
1.255873478
1.284338816
1.320109208
1.368948248
1.445038325
1.691196073
0.7280121644
0.7312392054
0.7351904862
0.7385855345
0.7422247458
0.7462401124
0.7506452314
0.7554610833
0.7607106324
0.7664019093
0.772543039
0.7791424708
0.7862069771
0.7937463082
0.8017577411
0.8102418454
0.8192108527
0.8286620373
0.8385778509
0.8489785823
0.8598648854
0.8712027128
0.8829726096
0.8951767224
0.9078394867
0.9209350785
0.934411186
0.9482634255
0.9625200927
0.9771591712
0.9921284867
1.007427853
1.023071437
1.039035115
1.055320275
1.071938466
1.088915264
1.106263795
1.123963067
1.142077461
1.160756338
1.180146049
1.200517974
1.222341866
1.246466822
1.274568213
1.309875113
1.358070468
1.433135128
1.675766729
0.7244406445
0.727637635
0.7315521021
0.7349154471
0.7385205494
0.7424981622
0.7468617229
0.7516319503
0.7568315412
0.7624684341
0.7685506053
0.7750863559
0.7820823388
0.7895481215
0.797480923
0.8058812383
0.8147610842
0.8241176631
0.833933518
0.8442286401
0.8550035585
0.8662244718
0.8778720342
0.8899482699
0.9024772544
0.9154333173
0.928764617
0.9424667272
0.9565675366
0.9710451606
0.9858479124
1.00097555
1.016441978
1.032223257
1.048320695
1.064745615
1.081523218
1.098666377
1.116154242
1.134050353
1.152502106
1.171653933
1.191773608
1.213324711
1.237145033
1.264887616
1.299737854
1.347299193
1.421354147
1.660521267
0.7208854873
0.7240527624
0.727930641
0.7312627217
0.7348340586
0.7387743133
0.7430966669
0.7478217035
0.7529718319
0.7585548686
0.7645786531
0.7710513467
0.7779794519
0.7853723932
0.7932273321
0.80154468
0.8103362447
0.8195991581
0.8293160614
0.8395066378
0.8501713067
0.8612765087
0.8728030163
0.8847527293
0.8971493498
0.9099673862
0.9231554546
0.9367090922
0.9506557833
0.9649737792
0.9796118817
0.9945697723
1.009861113
1.025462156
1.041374115
1.057608104
1.074188943
1.091129255
1.108408354
1.126088927
1.144316458
1.163233448
1.183104141
1.204386003
1.227905733
1.255294317
1.289693937
1.336629861
1.409689403
1.645440648
0.7173471263
0.720484941
0.7243266633
0.7276276105
0.7311654802
0.7350686839
0.7393502492
0.7440305426
0.7491316658
0.7546613545
0.7606273068
0.76703753
0.7738984191
0.7812192272
0.788997047
0.7972322429
0.8059364017
0.8151065843
0.824725531
0.8348126284
0.8453681855
0.856358882
0.8677656043
0.8795901428
0.8918558391
0.9045373539
0.9175837725
0.9309905839
0.9447848863
0.9589450765
0.9734204267
0.9882105526
1.003328867
1.01875183
1.034480557
1.050525951
1.066912466
1.083652452
1.100725427
1.118193249
1.136199489
1.154884748
1.174509759
1.195526017
1.218749308
1.245788857
1.279744343
1.326064036
1.398142772
1.630536378
0.7138258981
0.7169343939
0.7207402615
0.7240103478
0.7275150535
0.731381483
0.7356226008
0.7402585094
0.7453110589
0.7507878442
0.7566964662
0.7630447781
0.7698390628
0.7770884067
0.7847898401
0.792943658
0.8015612555
0.8106396178
0.820161577
0.830146233
0.8405937833
0.8514711531
0.8627593373
0.874460011
0.8865961598
0.8991426311
0.9120489499
0.9253105683
0.9389541935
0.9529583615
0.9672728255
0.9818971298
0.9968444521
1.012091444
1.027639134
1.043498222
1.059692793
1.076234959
1.093104401
1.110362149
1.128149918
1.146606431
1.165988993
1.18674316
1.209673942