/*--------------------------------*- C++ -*----------------------------------*\
| =========                 |                                                 |
| \\      /  F ield         | OpenFOAM: The Open Source CFD Toolbox           |
|  \\    /   O peration     | Version:  5.x                                   |
|   \\  /    A nd           | Web:      www.OpenFOAM.org                      |
|    \\/     M anipulation  |                                                 |
\*---------------------------------------------------------------------------*/
FoamFile
{
    version     2.0;
    format      ascii;
    class       volScalarField;
    location    "0.004";
    object      Jk;
}
// * * * * * * * * * * * * * * * * * * * * * * * * * * * * * * * * * * * * * //

dimensions      [0 -3 -1 0 0 0 0];

internalField   nonuniform List<scalar> 
7950
(
5.959352005e+25
5.959370739e+25
5.959429591e+25
5.959520328e+25
5.959643354e+25
5.959799046e+25
5.95998783e+25
5.960210687e+25
5.96046884e+25
5.960763416e+25
5.96109622e+25
5.961468839e+25
5.961883544e+25
5.962342362e+25
5.962847908e+25
5.963403242e+25
5.964011538e+25
5.964676317e+25
5.96540155e+25
5.966191776e+25
5.967051877e+25
5.967987307e+25
5.969004318e+25
5.970109378e+25
5.971310221e+25
5.972615039e+25
5.974033049e+25
5.975574502e+25
5.977250802e+25
5.979074445e+25
5.981059362e+25
5.983221459e+25
5.985578059e+25
5.988146787e+25
5.990950809e+25
5.994018583e+25
5.997365817e+25
6.001026992e+25
6.005042216e+25
6.009439579e+25
6.014263575e+25
6.019560491e+25
6.025381631e+25
6.031784966e+25
6.038835023e+25
6.046602678e+25
6.055169498e+25
6.064643477e+25
6.075140634e+25
6.086602694e+25
3.166359996e+22
3.167758224e+22
3.16975462e+22
3.172172289e+22
3.175289334e+22
3.17917197e+22
3.183822179e+22
3.189237622e+22
3.195416285e+22
3.202352371e+22
3.210035584e+22
3.218451964e+22
3.227582834e+22
3.237403459e+22
3.247881247e+22
3.258973856e+22
3.270627145e+22
3.282772587e+22
3.295324317e+22
3.308175423e+22
3.321194913e+22
3.334224467e+22
3.347073936e+22
3.359511806e+22
3.371263353e+22
3.382006342e+22
3.391362753e+22
3.398890432e+22
3.40407878e+22
3.406337903e+22
3.405002109e+22
3.399310581e+22
3.388393069e+22
3.371260317e+22
3.346812761e+22
3.313844254e+22
3.271116157e+22
3.216776419e+22
3.14943178e+22
3.067232022e+22
2.968250056e+22
2.850076686e+22
2.709811003e+22
2.543880606e+22
2.347719703e+22
2.115224253e+22
1.837693918e+22
1.501340535e+22
1.080375207e+22
5.084687311e+21
2.617780048e+19
2.616894123e+19
2.617606987e+19
2.620045061e+19
2.623617981e+19
2.628166436e+19
2.633660709e+19
2.640073636e+19
2.647372414e+19
2.655528498e+19
2.664513377e+19
2.674291813e+19
2.684815826e+19
2.696022021e+19
2.70783726e+19
2.720172482e+19
2.732914178e+19
2.745922691e+19
2.759026896e+19
2.772012072e+19
2.784671342e+19
2.79669305e+19
2.807670044e+19
2.817266986e+19
2.825038349e+19
2.830397741e+19
2.832741998e+19
2.831370019e+19
2.825498789e+19
2.814249211e+19
2.796662657e+19
2.771681078e+19
2.738074466e+19
2.694508679e+19
2.639583402e+19
2.571925126e+19
2.490380089e+19
2.393038918e+19
2.27910192e+19
2.148125523e+19
1.999421098e+19
1.832719985e+19
1.648092797e+19
1.446089661e+19
1.2279646e+19
9.959878526e+18
7.539233548e+18
5.080333169e+18
2.700039214e+18
6.550661562e+17
3.416312394e+16
3.417494522e+16
3.41999313e+16
3.423714561e+16
3.428678117e+16
3.434856443e+16
3.44220723e+16
3.450676464e+16
3.460196225e+16
3.470687862e+16
3.482046841e+16
3.494132561e+16
3.506902177e+16
3.520069026e+16
3.53343826e+16
3.54686817e+16
3.559964717e+16
3.57242498e+16
3.583847063e+16
3.593741023e+16
3.601643469e+16
3.606897e+16
3.608684639e+16
3.606325682e+16
3.598898162e+16
3.585370438e+16
3.565108892e+16
3.536059061e+16
3.497144743e+16
3.447899948e+16
3.386442848e+16
3.311520583e+16
3.221832481e+16
3.116044011e+16
2.992970591e+16
2.851787139e+16
2.692308251e+16
2.51367618e+16
2.31668702e+16
2.103096488e+16
1.87463459e+16
1.634248562e+16
1.385829048e+16
1.134323794e+16
8.859018647e+15
6.481056591e+15
4.299447317e+15
2.419984582e+15
9.737392424e+14
1.303262938e+14
5.929648033e+13
5.928060307e+13
5.929381748e+13
5.934264998e+13
5.941404883e+13
5.950331762e+13
5.960874952e+13
5.972833534e+13
5.985959867e+13
5.999981259e+13
6.01455804e+13
6.02927235e+13
6.04397133e+13
6.057797032e+13
6.070216928e+13
6.080850462e+13
6.088614414e+13
6.092731801e+13
6.092189453e+13
6.085803147e+13
6.072457066e+13
6.050656866e+13
6.018617231e+13
5.974910253e+13
5.917738966e+13
5.845152295e+13
5.755378638e+13
5.64568929e+13
5.514629202e+13
5.361180211e+13
5.183551216e+13
4.980769668e+13
4.752252919e+13
4.497761983e+13
4.217695578e+13
3.913435809e+13
3.58766657e+13
3.242284521e+13
2.881672668e+13
2.511678095e+13
2.138087283e+13
1.768478956e+13
1.41137976e+13
1.07602109e+13
7.720511992e+12
5.090433083e+12
2.956856286e+12
1.387332306e+12
4.215665792e+11
3.061840762e+10
1.243567458e+11
1.243580645e+11
1.243757794e+11
1.244320869e+11
1.245118971e+11
1.246068381e+11
1.247122838e+11
1.248222878e+11
1.249294157e+11
1.250250676e+11
1.250986588e+11
1.251379341e+11
1.251371113e+11
1.250718494e+11
1.249275202e+11
1.246931994e+11
1.243401253e+11
1.238485231e+11
1.231934146e+11
1.223464847e+11
1.212809389e+11
1.199654496e+11
1.183746845e+11
1.16459062e+11
1.14191051e+11
1.115599073e+11
1.085203876e+11
1.050464684e+11
1.011275124e+11
9.675414052e+10
9.192402707e+10
8.664872678e+10
8.095179291e+10
7.486846224e+10
6.844971961e+10
6.176689609e+10
5.491366648e+10
4.796976797e+10
4.105661913e+10
3.431171354e+10
2.786065037e+10
2.184410999e+10
1.639787462e+10
1.164387114e+10
7680829563
4572737016
2334753164
920044265.9
213982475.9
8730831.314
303125825.8
302997589.3
302828886
302735952.4
302637605.6
302499561.6
302306216.3
302037531.6
301668960.9
301172891.1
300516495
299663482.5
298594527.8
297239802.1
295559582.4
293524061.6
291056931.2
288109523.3
284621818.7
280529465
275778204.9
270307473.9
264056299.7
256952326.3
248969736.4
240101599.9
230301638.5
219583704.4
207974428
195498111.5
182225080.6
168250589.7
153699210.1
138722766.2
123504135.9
108261023.3
93241685.33
78656088.11
64774469.8
51866043.07
40146890.86
29822795.66
21049505.3
13917065.72
8437384.389
4533448.102
2032407.596
670774.8153
118646.5083
2672.082657
826422.1524
826044.7899
825107.691
824081.2902
822752.7435
821027.734
818860.4165
816189.5841
812940.0118
809027.1978
804352.9307
798813.3488
792353.5998
784775.4108
775978.9856
765894.507
754326.218
741168.4682
726290.9084
709559.6974
690893.2454
670248.3648
647423.201
622389.8143
595279.77
566078.2496
534827.3601
501730.2093
466985.9718
430792.9043
393496.5136
355477.2895
317173.072
279067.893
241688.9225
205601.6122
171384.9645
139493.6463
110443.2653
84670.32232
62439.32958
43924.11352
29141.11585
17938.25394
9998.009417
4852.38148
1913.643438
530.9255366
71.87744929
0.9105432023
2476.189126
2474.085803
2468.975074
2462.910502
2454.996884
2444.895859
2432.470108
2417.530935
2399.849947
2379.178441
2355.235382
2327.739216
2296.564898
2261.158857
2221.308685
2176.90174
2127.466467
2072.837648
2012.803186
1947.189041
1876.014604
1799.3234
1716.869268
1629.04396
1536.461984
1439.371452
1338.297899
1234.183775
1127.8825
1020.243436
912.5190304
805.9583439
701.8825643
601.6402804
506.5755217
417.9922098
337.0754522
264.6102423
201.3619922
147.77058
103.8037379
69.14759305
43.1206947
24.71364766
12.66317774
5.550652874
1.924516699
0.4480508349
0.04620649693
0.0003270734093
7.998308227
7.989862489
7.966201959
7.93600151
7.896166877
7.845642561
7.784083663
7.710972478
7.62568023
7.527541966
7.415832331
7.289889205
7.149589698
6.993468546
6.821292403
6.633179997
6.428173818
6.2063856
5.967819814
5.712764869
5.442486442
5.157254349
4.857527597
4.54620523
4.22543876
3.896914632
3.563274157
3.228158394
2.894690121
2.565897847
2.245817862
1.93814667
1.646491837
1.374224681
1.124362803
0.8994572763
0.7013968791
0.530849728
0.3881313279
0.2725703437
0.1823466963
0.1150027267
0.06740444615
0.03596970678
0.01694780459
0.0067126743
0.0020482378
0.0004009052345
3.160015881e-05
1.265418688e-07
0.02757538554
0.02753563521
0.02742429785
0.02727939789
0.02708813368
0.02684686355
0.02655497398
0.02621129142
0.02581438813
0.02536288854
0.02485540459
0.02429101106
0.02367076027
0.02299129201
0.02225386611
0.02146101532
0.02061183743
0.01970928897
0.01875619918
0.01775663951
0.0167172562
0.01564189657
0.01453588494
0.01341139837
0.01227732312
0.01114131316
0.01001402301
0.008908375229
0.007834781748
0.00680269437
0.00582448756
0.004909983296
0.004067644266
0.003304871577
0.002626941427
0.002037026748
0.001535832155
0.001120568424
0.0007871535673
0.0005289866315
0.0003370332974
0.0002012627296
0.0001108821371
5.51007897e-05
2.387539353e-05
8.54509408e-06
2.293976967e-06
3.771160412e-07
2.266201124e-08
7.352887211e-09
0.0001003599583
0.0001001860407
9.967426605e-05
9.899245006e-05
9.809053172e-05
9.695711494e-05
9.559327777e-05
9.399834928e-05
9.217128141e-05
9.011192908e-05
8.782090109e-05
8.530137837e-05
8.256411007e-05
7.960463998e-05
7.64363364e-05
7.307719186e-05
6.953346384e-05
6.582528671e-05
6.197296901e-05
5.800399952e-05
5.394579323e-05
4.9821973e-05
4.566482215e-05
4.152017199e-05
3.742323545e-05
3.340470464e-05
2.95038647e-05
2.576391538e-05
2.221694647e-05
1.889040059e-05
1.581766211e-05
1.302131842e-05
1.051749748e-05
8.316608924e-06
6.42101991e-06
4.825535137e-06
3.517122101e-06
2.473487504e-06
1.669150997e-06
1.073317046e-06
6.512394785e-07
3.682148571e-07
1.906910633e-07
8.825064732e-08
3.517264099e-08
1.137867011e-08
7.070634575e-09
7.07063645e-09
7.070638138e-09
7.07063992e-09
3.832466751e-07
3.824365063e-07
3.800394373e-07
3.76816649e-07
3.725552791e-07
3.672199779e-07
3.60831514e-07
3.534055908e-07
3.449590406e-07
3.355153526e-07
3.25104034e-07
3.137675724e-07
3.015783133e-07
2.885535579e-07
2.747809716e-07
2.603645227e-07
2.453652784e-07
2.298961365e-07
2.140703133e-07
1.980207436e-07
1.818780866e-07
1.657595546e-07
1.498057885e-07
1.341962465e-07
1.190620844e-07
1.045126437e-07
9.068784481e-08
7.772275054e-08
6.5702636e-08
5.469778555e-08
4.478454165e-08
3.599733878e-08
2.834471701e-08
2.181173229e-08
1.635630258e-08
1.191273361e-08
8.393695411e-09
6.797276761e-09
6.797277669e-09
6.797278577e-09
6.797279485e-09
6.797280393e-09
6.797281301e-09
6.797282209e-09
6.797283117e-09
6.797284025e-09
6.797284843e-09
6.797285751e-09
6.797286568e-09
6.797287385e-09
6.532606256e-09
6.532606256e-09
6.532606256e-09
6.532606344e-09
6.532606431e-09
6.532606519e-09
6.532606607e-09
6.532606783e-09
6.532606871e-09
6.532607047e-09
6.532607223e-09
6.532607398e-09
6.532607662e-09
6.532607838e-09
6.532608102e-09
6.532608365e-09
6.532608629e-09
6.532608893e-09
6.532609244e-09
6.532609508e-09
6.53260986e-09
6.532610211e-09
6.532610563e-09
6.532610914e-09
6.532611266e-09
6.532611618e-09
6.532612057e-09
6.532612409e-09
6.532612848e-09
6.532613288e-09
6.532613639e-09
6.532614079e-09
6.532614518e-09
6.532614958e-09
6.532615397e-09
6.532615837e-09
6.532616277e-09
6.532616716e-09
6.532617156e-09
6.532617595e-09
6.532618035e-09
6.532618474e-09
6.532618914e-09
6.532619353e-09
6.532619793e-09
6.532620232e-09
6.532620672e-09
6.532621023e-09
6.532621463e-09
6.532621902e-09
6.276430386e-09
6.276430386e-09
6.276430471e-09
6.276430471e-09
6.276430471e-09
6.276430556e-09
6.276430556e-09
6.276430641e-09
6.276430726e-09
6.276430811e-09
6.276430896e-09
6.276430981e-09
6.276431066e-09
6.276431151e-09
6.276431321e-09
6.276431407e-09
6.276431577e-09
6.276431662e-09
6.276431832e-09
6.276432002e-09
6.276432172e-09
6.276432342e-09
6.276432513e-09
6.276432683e-09
6.276432853e-09
6.276433023e-09
6.276433193e-09
6.276433363e-09
6.276433618e-09
6.276433789e-09
6.276433959e-09
6.276434214e-09
6.276434384e-09
6.276434639e-09
6.27643481e-09
6.276435065e-09
6.276435235e-09
6.27643549e-09
6.27643566e-09
6.276435915e-09
6.276436086e-09
6.276436341e-09
6.276436511e-09
6.276436766e-09
6.276436936e-09
6.276437192e-09
6.276437362e-09
6.276437532e-09
6.276437787e-09
6.276437957e-09
6.028529176e-09
6.028529176e-09
6.028529176e-09
6.028529176e-09
6.028529259e-09
6.028529259e-09
6.028529259e-09
6.028529341e-09
6.028529341e-09
6.028529341e-09
6.028529423e-09
6.028529505e-09
6.028529505e-09
6.028529588e-09
6.028529588e-09
6.02852967e-09
6.028529752e-09
6.028529835e-09
6.028529917e-09
6.028529917e-09
6.028529999e-09
6.028530082e-09
6.028530164e-09
6.028530246e-09
6.028530329e-09
6.028530411e-09
6.028530576e-09
6.028530658e-09
6.02853074e-09
6.028530823e-09
6.028530905e-09
6.028530987e-09
6.028531152e-09
6.028531234e-09
6.028531316e-09
6.028531399e-09
6.028531563e-09
6.028531646e-09
6.028531728e-09
6.02853181e-09
6.028531975e-09
6.028532057e-09
6.02853214e-09
6.028532222e-09
6.028532386e-09
6.028532469e-09
6.028532551e-09
6.028532633e-09
6.028532716e-09
6.028532798e-09
5.788704599e-09
5.788704599e-09
5.788704599e-09
5.788704679e-09
5.788704679e-09
5.788704679e-09
5.788704679e-09
5.788704679e-09
5.788704679e-09
5.788704758e-09
5.788704758e-09
5.788704758e-09
5.788704758e-09
5.788704838e-09
5.788704838e-09
5.788704838e-09
5.788704918e-09
5.788704918e-09
5.788704997e-09
5.788704997e-09
5.788705077e-09
5.788705077e-09
5.788705077e-09
5.788705156e-09
5.788705236e-09
5.788705236e-09
5.788705316e-09
5.788705316e-09
5.788705395e-09
5.788705395e-09
5.788705475e-09
5.788705555e-09
5.788705555e-09
5.788705634e-09
5.788705634e-09
5.788705714e-09
5.788705793e-09
5.788705793e-09
5.788705873e-09
5.788705873e-09
5.788705953e-09
5.788706032e-09
5.788706032e-09
5.788706112e-09
5.788706191e-09
5.788706191e-09
5.788706271e-09
5.788706351e-09
5.788706351e-09
5.78870643e-09
5.556760263e-09
5.556760263e-09
5.556760263e-09
5.556760263e-09
5.556760263e-09
5.55676034e-09
5.55676034e-09
5.55676034e-09
5.55676034e-09
5.55676034e-09
5.55676034e-09
5.55676034e-09
5.55676034e-09
5.55676034e-09
5.556760417e-09
5.556760417e-09
5.556760417e-09
5.556760417e-09
5.556760417e-09
5.556760494e-09
5.556760494e-09
5.556760494e-09
5.556760494e-09
5.556760571e-09
5.556760571e-09
5.556760571e-09
5.556760571e-09
5.556760648e-09
5.556760648e-09
5.556760648e-09
5.556760648e-09
5.556760725e-09
5.556760725e-09
5.556760725e-09
5.556760802e-09
5.556760802e-09
5.556760802e-09
5.556760879e-09
5.556760879e-09
5.556760879e-09
5.556760879e-09
5.556760956e-09
5.556760956e-09
5.556760956e-09
5.556761033e-09
5.556761033e-09
5.556761033e-09
5.556761033e-09
5.55676111e-09
5.55676111e-09
5.332501916e-09
5.332501916e-09
5.332501916e-09
5.332501916e-09
5.332501916e-09
5.332501916e-09
5.332501916e-09
5.332501916e-09
5.332501916e-09
5.332501916e-09
5.332501916e-09
5.332501916e-09
5.332501916e-09
5.332501916e-09
5.332501916e-09
5.332501916e-09
5.332501991e-09
5.332501991e-09
5.332501991e-09
5.332501991e-09
5.332501991e-09
5.332501991e-09
5.332501991e-09
5.332501991e-09
5.332501991e-09
5.332502065e-09
5.332502065e-09
5.332502065e-09
5.332502065e-09
5.332502065e-09
5.332502065e-09
5.332502065e-09
5.33250214e-09
5.33250214e-09
5.33250214e-09
5.33250214e-09
5.33250214e-09
5.33250214e-09
5.33250214e-09
5.332502214e-09
5.332502214e-09
5.332502214e-09
5.332502214e-09
5.332502214e-09
5.332502214e-09
5.332502214e-09
5.332502288e-09
5.332502288e-09
5.332502288e-09
5.332502288e-09
5.115737605e-09
5.115737605e-09
5.115737605e-09
5.115737605e-09
5.115737605e-09
5.115737605e-09
5.115737605e-09
5.115737605e-09
5.115737605e-09
5.115737605e-09
5.115737677e-09
5.115737677e-09
5.115737677e-09
5.115737677e-09
5.115737677e-09
5.115737677e-09
5.115737677e-09
5.115737677e-09
5.115737677e-09
5.115737677e-09
5.115737677e-09
5.115737677e-09
5.115737677e-09
5.115737677e-09
5.115737677e-09
5.115737677e-09
5.115737677e-09
5.115737677e-09
5.115737677e-09
5.115737749e-09
5.115737749e-09
5.115737749e-09
5.115737749e-09
5.115737749e-09
5.115737749e-09
5.115737749e-09
5.115737749e-09
5.115737749e-09
5.115737749e-09
5.115737749e-09
5.115737749e-09
5.115737749e-09
5.115737749e-09
5.115737821e-09
5.115737821e-09
5.115737821e-09
5.115737821e-09
5.115737821e-09
5.115737821e-09
5.115737821e-09
4.906278295e-09
4.906278295e-09
4.906278295e-09
4.906278295e-09
4.906278295e-09
4.906278295e-09
4.906278295e-09
4.906278295e-09
4.906278295e-09
4.906278295e-09
4.906278295e-09
4.906278295e-09
4.906278295e-09
4.906278295e-09
4.906278295e-09
4.906278295e-09
4.906278295e-09
4.906278295e-09
4.906278295e-09
4.906278295e-09
4.906278295e-09
4.906278295e-09
4.906278295e-09
4.906278295e-09
4.906278295e-09
4.906278295e-09
4.906278295e-09
4.906278295e-09
4.906278295e-09
4.906278295e-09
4.906278295e-09
4.906278295e-09
4.906278295e-09
4.906278295e-09
4.906278295e-09
4.906278295e-09
4.906278365e-09
4.906278365e-09
4.906278365e-09
4.906278365e-09
4.906278365e-09
4.906278365e-09
4.906278365e-09
4.906278365e-09
4.906278365e-09
4.906278365e-09
4.906278365e-09
4.906278365e-09
4.906278365e-09
4.906278365e-09
4.703937283e-09
4.703937283e-09
4.703937283e-09
4.703937283e-09
4.703937283e-09
4.703937283e-09
4.703937283e-09
4.703937283e-09
4.703937283e-09
4.703937283e-09
4.703937283e-09
4.703937283e-09
4.703937283e-09
4.703937283e-09
4.703937283e-09
4.703937283e-09
4.703937283e-09
4.703937283e-09
4.703937283e-09
4.703937283e-09
4.703937283e-09
4.703937283e-09
4.703937283e-09
4.703937283e-09
4.703937283e-09
4.703937283e-09
4.70393735e-09
4.70393735e-09
4.70393735e-09
4.70393735e-09
4.70393735e-09
4.70393735e-09
4.70393735e-09
4.70393735e-09
4.70393735e-09
4.70393735e-09
4.70393735e-09
4.70393735e-09
4.70393735e-09
4.70393735e-09
4.70393735e-09
4.70393735e-09
4.70393735e-09
4.70393735e-09
4.70393735e-09
4.70393735e-09
4.70393735e-09
4.70393735e-09
4.70393735e-09
4.70393735e-09
4.508530912e-09
4.508530912e-09
4.508530912e-09
4.508530912e-09
4.508530912e-09
4.508530912e-09
4.508530912e-09
4.508530912e-09
4.508530912e-09
4.508530912e-09
4.508530912e-09
4.508530912e-09
4.508530912e-09
4.508530912e-09
4.508530977e-09
4.508530977e-09
4.508530977e-09
4.508530977e-09
4.508530977e-09
4.508530977e-09
4.508530977e-09
4.508530977e-09
4.508530977e-09
4.508530977e-09
4.508530977e-09
4.508530977e-09
4.508530977e-09
4.508530977e-09
4.508530977e-09
4.508530977e-09
4.508530977e-09
4.508530977e-09
4.508530977e-09
4.508530977e-09
4.508530977e-09
4.508530977e-09
4.508530977e-09
4.508530977e-09
4.508530977e-09
4.508530977e-09
4.508530977e-09
4.508530977e-09
4.508530977e-09
4.508530977e-09
4.508530977e-09
4.508530977e-09
4.508530977e-09
4.508530977e-09
4.508530977e-09
4.508530977e-09
4.319878156e-09
4.319878156e-09
4.319878156e-09
4.319878156e-09
4.319878156e-09
4.319878156e-09
4.319878156e-09
4.319878156e-09
4.319878156e-09
4.319878156e-09
4.319878156e-09
4.319878156e-09
4.319878156e-09
4.319878156e-09
4.319878156e-09
4.319878156e-09
4.319878156e-09
4.319878156e-09
4.319878156e-09
4.319878156e-09
4.319878156e-09
4.319878156e-09
4.319878219e-09
4.319878219e-09
4.319878219e-09
4.319878219e-09
4.319878219e-09
4.319878219e-09
4.319878219e-09
4.319878219e-09
4.319878219e-09
4.319878219e-09
4.319878219e-09
4.319878219e-09
4.319878219e-09
4.319878219e-09
4.319878219e-09
4.319878219e-09
4.319878219e-09
4.319878219e-09
4.319878219e-09
4.319878219e-09
4.319878219e-09
4.319878219e-09
4.319878219e-09
4.319878219e-09
4.319878219e-09
4.319878219e-09
4.319878219e-09
4.319878219e-09
4.137800804e-09
4.137800804e-09
4.137800804e-09
4.137800804e-09
4.137800804e-09
4.137800804e-09
4.137800804e-09
4.137800804e-09
4.137800804e-09
4.137800804e-09
4.137800804e-09
4.137800804e-09
4.137800804e-09
4.137800804e-09
4.137800804e-09
4.137800804e-09
4.137800804e-09
4.137800804e-09
4.137800804e-09
4.137800804e-09
4.137800804e-09
4.137800804e-09
4.137800804e-09
4.137800804e-09
4.137800804e-09
4.137800804e-09
4.137800804e-09
4.137800804e-09
4.137800804e-09
4.137800804e-09
4.137800804e-09
4.137800804e-09
4.137800804e-09
4.137800804e-09
4.137800804e-09
4.137800804e-09
4.137800804e-09
4.137800804e-09
4.137800804e-09
4.137800804e-09
4.137800804e-09
4.137800804e-09
4.137800804e-09
4.137800804e-09
4.137800804e-09
4.137800804e-09
4.137800804e-09
4.137800804e-09
4.137800804e-09
4.137800804e-09
3.962123436e-09
3.962123436e-09
3.962123436e-09
3.962123436e-09
3.962123436e-09
3.962123436e-09
3.962123436e-09
3.962123436e-09
3.962123436e-09
3.962123436e-09
3.962123436e-09
3.962123436e-09
3.962123436e-09
3.962123436e-09
3.962123436e-09
3.962123436e-09
3.962123436e-09
3.962123436e-09
3.962123436e-09
3.962123436e-09
3.962123436e-09
3.962123436e-09
3.962123436e-09
3.962123436e-09
3.962123436e-09
3.962123436e-09
3.962123436e-09
3.962123436e-09
3.962123436e-09
3.962123436e-09
3.962123436e-09
3.962123436e-09
3.962123436e-09
3.962123436e-09
3.962123436e-09
3.962123436e-09
3.962123436e-09
3.962123436e-09
3.962123436e-09
3.962123436e-09
3.962123436e-09
3.962123436e-09
3.962123436e-09
3.962123436e-09
3.962123436e-09
3.962123436e-09
3.962123436e-09
3.962123436e-09
3.962123436e-09
3.962123436e-09
3.792673469e-09
3.792673469e-09
3.792673469e-09
3.792673469e-09
3.792673469e-09
3.792673469e-09
3.792673469e-09
3.792673469e-09
3.792673469e-09
3.792673469e-09
3.792673469e-09
3.792673469e-09
3.792673469e-09
3.792673469e-09
3.792673469e-09
3.792673469e-09
3.792673469e-09
3.792673469e-09
3.792673469e-09
3.792673469e-09
3.792673469e-09
3.792673469e-09
3.792673469e-09
3.792673469e-09
3.792673469e-09
3.792673469e-09
3.792673469e-09
3.792673469e-09
3.792673469e-09
3.792673469e-09
3.792673469e-09
3.792673469e-09
3.792673469e-09
3.792673469e-09
3.792673469e-09
3.792673469e-09
3.792673469e-09
3.792673469e-09
3.792673469e-09
3.792673469e-09
3.792673469e-09
3.792673469e-09
3.792673469e-09
3.792673469e-09
3.792673469e-09
3.792673469e-09
3.792673469e-09
3.792673469e-09
3.792673469e-09
3.792673469e-09
3.62928113e-09
3.62928113e-09
3.62928113e-09
3.62928113e-09
3.62928113e-09
3.62928113e-09
3.62928113e-09
3.62928113e-09
3.62928113e-09
3.62928113e-09
3.62928113e-09
3.62928113e-09
3.62928113e-09
3.62928113e-09
3.62928113e-09
3.62928113e-09
3.62928113e-09
3.62928113e-09
3.62928113e-09
3.62928113e-09
3.62928113e-09
3.62928113e-09
3.62928113e-09
3.62928113e-09
3.62928113e-09
3.62928113e-09
3.62928113e-09
3.62928113e-09
3.62928113e-09
3.62928113e-09
3.62928113e-09
3.62928113e-09
3.62928113e-09
3.62928113e-09
3.62928113e-09
3.62928113e-09
3.62928113e-09
3.62928113e-09
3.62928113e-09
3.62928113e-09
3.62928113e-09
3.62928113e-09
3.62928113e-09
3.62928113e-09
3.62928113e-09
3.62928113e-09
3.62928113e-09
3.62928113e-09
3.62928113e-09
3.62928113e-09
3.471779495e-09
3.471779495e-09
3.471779495e-09
3.471779495e-09
3.471779495e-09
3.471779495e-09
3.471779495e-09
3.471779495e-09
3.471779495e-09
3.471779495e-09
3.471779495e-09
3.471779495e-09
3.471779495e-09
3.471779495e-09
3.471779495e-09
3.471779495e-09
3.471779495e-09
3.471779495e-09
3.471779495e-09
3.471779495e-09
3.471779495e-09
3.471779495e-09
3.471779495e-09
3.471779495e-09
3.471779495e-09
3.471779495e-09
3.471779495e-09
3.471779495e-09
3.471779495e-09
3.471779495e-09
3.471779495e-09
3.471779495e-09
3.471779495e-09
3.471779495e-09
3.471779495e-09
3.471779495e-09
3.471779495e-09
3.471779495e-09
3.471779495e-09
3.471779495e-09
3.471779495e-09
3.471779495e-09
3.471779495e-09
3.471779495e-09
3.471779495e-09
3.471779495e-09
3.471779495e-09
3.471779495e-09
3.471779495e-09
3.471779495e-09
3.320004463e-09
3.320004463e-09
3.320004463e-09
3.320004463e-09
3.320004463e-09
3.320004463e-09
3.320004463e-09
3.320004463e-09
3.320004463e-09
3.320004463e-09
3.320004463e-09
3.320004463e-09
3.320004463e-09
3.320004463e-09
3.320004463e-09
3.320004463e-09
3.320004463e-09
3.320004463e-09
3.320004463e-09
3.320004463e-09
3.320004463e-09
3.320004463e-09
3.320004463e-09
3.320004463e-09
3.320004463e-09
3.320004463e-09
3.320004463e-09
3.320004463e-09
3.320004463e-09
3.320004463e-09
3.320004463e-09
3.320004463e-09
3.320004463e-09
3.320004463e-09
3.320004463e-09
3.320004463e-09
3.320004463e-09
3.320004463e-09
3.320004463e-09
3.320004463e-09
3.320004463e-09
3.320004463e-09
3.320004463e-09
3.320004463e-09
3.320004463e-09
3.320004463e-09
3.320004463e-09
3.320004463e-09
3.320004463e-09
3.320004463e-09
3.173794741e-09
3.173794741e-09
3.173794741e-09
3.173794741e-09
3.173794741e-09
3.173794741e-09
3.173794741e-09
3.173794741e-09
3.173794741e-09
3.173794741e-09
3.173794741e-09
3.173794741e-09
3.173794741e-09
3.173794741e-09
3.173794741e-09
3.173794741e-09
3.173794741e-09
3.173794741e-09
3.173794741e-09
3.173794741e-09
3.173794741e-09
3.173794741e-09
3.173794741e-09
3.173794741e-09
3.173794741e-09
3.173794741e-09
3.173794741e-09
3.173794741e-09
3.173794741e-09
3.173794741e-09
3.173794741e-09
3.173794741e-09
3.173794741e-09
3.173794741e-09
3.173794741e-09
3.173794741e-09
3.173794741e-09
3.173794741e-09
3.173794741e-09
3.173794741e-09
3.173794741e-09
3.173794741e-09
3.173794741e-09
3.173794741e-09
3.173794741e-09
3.173794741e-09
3.173794741e-09
3.173794741e-09
3.173794741e-09
3.173794741e-09
3.032992017e-09
3.032992017e-09
3.032992017e-09
3.032992017e-09
3.032992017e-09
3.032992017e-09
3.032992017e-09
3.032992017e-09
3.032992017e-09
3.032992017e-09
3.032992017e-09
3.032992017e-09
3.032992017e-09
3.032992017e-09
3.032992017e-09
3.032992017e-09
3.032992017e-09
3.032992017e-09
3.032992017e-09
3.032992017e-09
3.032992017e-09
3.032992017e-09
3.032992017e-09
3.032992017e-09
3.032992017e-09
3.032992017e-09
3.032992017e-09
3.032992017e-09
3.032992017e-09
3.032992017e-09
3.032992017e-09
3.032992017e-09
3.032992017e-09
3.032992017e-09
3.032992017e-09
3.032992017e-09
3.032992017e-09
3.032992017e-09
3.032992017e-09
3.032992017e-09
3.032992017e-09
3.032992017e-09
3.032992017e-09
3.032992017e-09
3.032992017e-09
3.032992017e-09
3.032992017e-09
3.032992017e-09
3.032992017e-09
3.032992017e-09
2.897440684e-09
2.897440684e-09
2.897440684e-09
2.897440684e-09
2.897440684e-09
2.897440684e-09
2.897440684e-09
2.897440684e-09
2.897440684e-09
2.897440684e-09
2.897440684e-09
2.897440684e-09
2.897440684e-09
2.897440684e-09
2.897440684e-09
2.897440684e-09
2.897440684e-09
2.897440684e-09
2.897440684e-09
2.897440684e-09
2.897440684e-09
2.897440684e-09
2.897440684e-09
2.897440684e-09
2.897440684e-09
2.897440684e-09
2.897440684e-09
2.897440684e-09
2.897440684e-09
2.897440684e-09
2.897440684e-09
2.897440684e-09
2.897440684e-09
2.897440684e-09
2.897440684e-09
2.897440684e-09
2.897440684e-09
2.897440684e-09
2.897440684e-09
2.897440684e-09
2.897440684e-09
2.897440684e-09
2.897440684e-09
2.897440684e-09
2.897440684e-09
2.897440684e-09
2.897440684e-09
2.897440684e-09
2.897440684e-09
2.897440684e-09
2.76698802e-09
2.76698802e-09
2.76698802e-09
2.76698802e-09
2.76698802e-09
2.76698802e-09
2.76698802e-09
2.76698802e-09
2.76698802e-09
2.76698802e-09
2.76698802e-09
2.76698802e-09
2.76698802e-09
2.76698802e-09
2.76698802e-09
2.76698802e-09
2.76698802e-09
2.76698802e-09
2.76698802e-09
2.76698802e-09
2.76698802e-09
2.76698802e-09
2.76698802e-09
2.76698802e-09
2.76698802e-09
2.76698802e-09
2.76698802e-09
2.76698802e-09
2.76698802e-09
2.76698802e-09
2.76698802e-09
2.76698802e-09
2.76698802e-09
2.76698802e-09
2.76698802e-09
2.76698802e-09
2.76698802e-09
2.76698802e-09
2.76698802e-09
2.76698802e-09
2.76698802e-09
2.76698802e-09
2.76698802e-09
2.76698802e-09
2.76698802e-09
2.76698802e-09
2.76698802e-09
2.76698802e-09
2.76698802e-09
2.76698802e-09
2.641484157e-09
2.641484157e-09
2.641484157e-09
2.641484157e-09
2.641484157e-09
2.641484157e-09
2.641484157e-09
2.641484157e-09
2.641484157e-09
2.641484157e-09
2.641484157e-09
2.641484157e-09
2.641484157e-09
2.641484157e-09
2.641484157e-09
2.641484157e-09
2.641484157e-09
2.641484157e-09
2.641484157e-09
2.641484157e-09
2.641484157e-09
2.641484157e-09
2.641484157e-09
2.641484157e-09
2.641484157e-09
2.641484157e-09
2.641484157e-09
2.641484157e-09
2.641484157e-09
2.641484157e-09
2.641484157e-09
2.641484157e-09
2.641484157e-09
2.641484157e-09
2.641484157e-09
2.641484157e-09
2.641484157e-09
2.641484157e-09
2.641484157e-09
2.641484157e-09
2.641484157e-09
2.641484157e-09
2.641484157e-09
2.641484157e-09
2.641484157e-09
2.641484157e-09
2.641484157e-09
2.641484157e-09
2.641484157e-09
2.641484157e-09
2.520782055e-09
2.520782055e-09
2.520782055e-09
2.520782055e-09
2.520782055e-09
2.520782055e-09
2.520782055e-09
2.520782055e-09
2.520782055e-09
2.520782055e-09
2.520782055e-09
2.520782055e-09
2.520782055e-09
2.520782055e-09
2.520782055e-09
2.520782055e-09
2.520782055e-09
2.520782055e-09
2.520782055e-09
2.520782055e-09
2.520782055e-09
2.520782055e-09
2.520782055e-09
2.520782055e-09
2.520782055e-09
2.520782055e-09
2.520782055e-09
2.520782055e-09
2.520782055e-09
2.520782055e-09
2.520782055e-09
2.520782055e-09
2.520782055e-09
2.520782055e-09
2.520782055e-09
2.520782055e-09
2.520782055e-09
2.520782055e-09
2.520782055e-09
2.520782055e-09
2.520782055e-09
2.520782055e-09
2.520782055e-09
2.520782055e-09
2.520782055e-09
2.520782055e-09
2.520782055e-09
2.520782055e-09
2.520782055e-09
2.520782055e-09
2.404737519e-09
2.404737519e-09
2.404737519e-09
2.404737519e-09
2.404737519e-09
2.404737519e-09
2.404737519e-09
2.404737519e-09
2.404737519e-09
2.404737519e-09
2.404737519e-09
2.404737519e-09
2.404737519e-09
2.404737519e-09
2.404737519e-09
2.404737519e-09
2.404737519e-09
2.404737519e-09
2.404737519e-09
2.404737519e-09
2.404737519e-09
2.404737519e-09
2.404737519e-09
2.404737519e-09
2.404737519e-09
2.404737519e-09
2.404737519e-09
2.404737519e-09
2.404737519e-09
2.404737519e-09
2.404737519e-09
2.404737519e-09
2.404737519e-09
2.404737519e-09
2.404737519e-09
2.404737519e-09
2.404737519e-09
2.404737519e-09
2.404737519e-09
2.404737519e-09
2.404737519e-09
2.404737519e-09
2.404737519e-09
2.404737519e-09
2.404737519e-09
2.404737519e-09
2.404737519e-09
2.404737519e-09
2.404737519e-09
2.404737519e-09
2.293209134e-09
2.293209134e-09
2.293209134e-09
2.293209134e-09
2.293209134e-09
2.293209134e-09
2.293209134e-09
2.293209134e-09
2.293209134e-09
2.293209134e-09
2.293209134e-09
2.293209134e-09
2.293209134e-09
2.293209134e-09
2.293209134e-09
2.293209134e-09
2.293209134e-09
2.293209134e-09
2.293209134e-09
2.293209134e-09
2.293209134e-09
2.293209134e-09
2.293209134e-09
2.293209134e-09
2.293209134e-09
2.293209134e-09
2.293209134e-09
2.293209134e-09
2.293209134e-09
2.293209134e-09
2.293209134e-09
2.293209134e-09
2.293209134e-09
2.293209134e-09
2.293209134e-09
2.293209134e-09
2.293209134e-09
2.293209134e-09
2.293209134e-09