/*--------------------------------*- C++ -*----------------------------------*\
| =========                 |                                                 |
| \\      /  F ield         | OpenFOAM: The Open Source CFD Toolbox           |
|  \\    /   O peration     | Version:  5.x                                   |
|   \\  /    A nd           | Web:      www.OpenFOAM.org                      |
|    \\/     M anipulation  |                                                 |
\*---------------------------------------------------------------------------*/
FoamFile
{
    version     2.0;
    format      ascii;
    class       surfaceScalarField;
    location    "0.004";
    object      phiAir;
}
// * * * * * * * * * * * * * * * * * * * * * * * * * * * * * * * * * * * * * //

dimensions      [1 0 -1 0 0 0 0];

internalField   nonuniform List<scalar> 
15691
(
-5.450379676e-11
1.926734039e-10
-2.212402103e-10
5.77979681e-10
-4.998367004e-10
9.631841124e-10
-8.904854802e-10
1.34824068e-09
-1.392852974e-09
1.733095648e-09
-2.006561544e-09
2.117686804e-09
-2.731228805e-09
2.501943364e-09
-3.566401017e-09
2.885784745e-09
-4.51154157e-09
3.269118341e-09
-5.566016778e-09
3.65183715e-09
-6.729067642e-09
4.033816142e-09
-7.999785529e-09
4.414907577e-09
-9.37708383e-09
4.794935145e-09
-1.085966202e-08
5.173686795e-09
-1.24459602e-08
5.550905851e-09
-1.41341038e-08
5.926280422e-09
-1.592183538e-08
6.299430838e-09
-1.780643117e-08
6.669894736e-09
-1.97846013e-08
7.037109603e-09
-2.185236895e-08
7.400392772e-09
-2.400492671e-08
7.758918278e-09
-2.623646654e-08
8.111690305e-09
-2.853998246e-08
8.457514637e-09
-3.090704053e-08
8.794969031e-09
-3.332751545e-08
9.122367798e-09
-3.578929374e-08
9.437724751e-09
-3.827793313e-08
9.738716702e-09
-4.077626651e-08
1.002264615e-08
-4.326399443e-08
1.028640453e-08
-4.571737312e-08
1.052641544e-08
-4.810864858e-08
1.073868012e-08
-5.040459839e-08
1.091867371e-08
-5.256649775e-08
1.106134294e-08
-5.455946763e-08
1.116110982e-08
-5.633269904e-08
1.121186693e-08
-5.78014113e-08
1.120700484e-08
-5.893913729e-08
1.114045519e-08
-5.968224709e-08
1.100265393e-08
-5.991868497e-08
1.07875757e-08
-5.95826185e-08
1.048811127e-08
-5.858097483e-08
1.009676593e-08
-5.681235861e-08
9.605648578e-09
-5.416843062e-08
9.006456715e-09
-5.053165193e-08
8.290419896e-09
-4.577588598e-08
7.448189032e-09
-3.977189963e-08
6.469656123e-09
-3.237791322e-08
5.343693744e-09
-2.336208409e-08
4.057785708e-09
-1.242716597e-08
2.59731865e-09
9.467531086e-10
-4.489271995e-12
1.983264593e-10
-1.531694932e-11
5.949707457e-10
-3.037419951e-11
9.915845849e-10
-5.038959377e-11
1.388144408e-09
-7.579703729e-11
1.784621908e-09
-1.067825613e-10
2.180981483e-09
-1.435772096e-10
2.577178008e-09
-1.864551083e-10
2.973154209e-09
-2.356732673e-10
3.368837232e-09
-2.914756602e-10
3.764134267e-09
-3.541134111e-10
4.158927253e-09
-4.238385605e-10
4.553066513e-09
-5.008916717e-10
4.946362921e-09
-5.854887662e-10
5.338578353e-09
-6.778076977e-10
5.729415821e-09
-7.779727776e-10
6.11850722e-09
-8.860360273e-10
6.505397722e-09
-1.001956179e-09
6.889529764e-09
-1.125579566e-09
7.270224516e-09
-1.256638718e-09
7.646661205e-09
-1.394730592e-09
8.017853995e-09
-1.539222057e-09
8.38261016e-09
-1.689220044e-09
8.739566893e-09
-1.84367474e-09
9.087072401e-09
-2.001384684e-09
9.423213302e-09
-2.160896681e-09
9.745770821e-09
-2.320499874e-09
1.00521889e-08
-2.47833279e-09
1.033954667e-08
-2.63236619e-09
1.060454989e-08
-2.780305203e-09
1.084349076e-08
-2.919835621e-09
1.105229381e-08
-3.048374599e-09
1.12263222e-08
-3.162937387e-09
1.13599778e-08
-3.260523451e-09
1.144713608e-08
-3.337649848e-09
1.148113209e-08
-3.388816088e-09
1.145479729e-08
-3.410648246e-09
1.136049168e-08
-3.393584756e-09
1.11900899e-08
-3.330540568e-09
1.093695713e-08
-3.222202642e-09
1.059479958e-08
-3.063969203e-09
1.015709141e-08
-2.85296043e-09
9.617173083e-09
-2.588494891e-09
8.968377318e-09
-2.272166353e-09
8.2041538e-09
-1.908698267e-09
7.318185705e-09
-1.506318567e-09
6.304487123e-09
-1.076201916e-09
5.157470737e-09
-6.412552259e-10
3.871965897e-09
-2.69260057e-10
2.443079084e-09
8.658174355e-10
-8.736486121e-12
2.062961247e-10
-3.67297513e-11
6.188743703e-10
-8.535060393e-11
1.031405671e-09
-1.541606958e-10
1.443852726e-09
-2.429099973e-10
1.856167909e-09
-3.514944456e-10
2.268288512e-09
-4.797506405e-10
2.68013169e-09
-6.274549135e-10
3.091588747e-09
-7.943536997e-10
3.50251884e-09
-9.801306313e-10
3.912741845e-09
-1.184358832e-09
4.322030167e-09
-1.406467176e-09
4.730099539e-09
-1.645724286e-09
5.136598391e-09
-1.901228192e-09
5.541093698e-09
-2.171854712e-09
5.943067412e-09
-2.45619985e-09
6.341889715e-09
-2.752559983e-09
6.736810387e-09
-3.058899462e-09
7.126940195e-09
-3.372816348e-09
7.511232748e-09
-3.691633819e-09
7.888465189e-09
-4.011880526e-09
8.257218078e-09
-4.329666348e-09
8.615838765e-09
-4.641458492e-09
8.962484162e-09
-4.942562554e-09
9.295006758e-09
-5.227440397e-09
9.610993862e-09
-5.49059419e-09
9.907737754e-09
-5.725911954e-09
1.018221858e-08
-5.926832605e-09
1.043109163e-08
-6.086565271e-09
1.065087403e-08
-6.198448955e-09
1.083798679e-08
-6.256140327e-09
1.098855215e-08
-6.253806379e-09
1.109839741e-08
-6.18654675e-09
1.116305215e-08
-6.050945008e-09
1.11778308e-08
-5.845771864e-09
1.113789219e-08
-5.572211361e-09
1.103831192e-08
-5.230416494e-09
1.087416378e-08
-4.829404394e-09
1.064060561e-08
-4.379586016e-09
1.033213024e-08
-3.885886822e-09
9.943250181e-09
-3.35911705e-09
9.468799467e-09
-2.811495051e-09
8.904011606e-09
-2.257200239e-09
8.244604254e-09
-1.71325028e-09
7.486860023e-09
-1.199809133e-09
6.627692235e-09
-7.404442169e-10
5.664682839e-09
-3.638271903e-10
4.596076738e-09
-1.059354433e-10
3.420714584e-09
4.968971848e-12
2.137888967e-09
7.471638236e-10
-1.076255999e-11
2.176435701e-10
-4.165548678e-11
6.529049917e-10
-9.158671569e-11
1.088079696e-09
-1.608029751e-10
1.523099592e-09
-2.493516747e-10
1.957880004e-09
-3.571028881e-10
2.392312204e-09
-4.838860557e-10
2.8262558e-09
-6.294641108e-10
3.259530596e-09
-7.934835749e-10
3.691907901e-09
-9.754611702e-10
4.123101199e-09
-1.174796071e-09
4.552755952e-09
-1.390845517e-09
4.980438595e-09
-1.622494947e-09
5.40562467e-09
-1.868698913e-09
5.827684425e-09
-2.128248878e-09
6.245876935e-09
-2.399309214e-09
6.659322614e-09
-2.680141902e-09
7.066997267e-09
-2.96858178e-09
7.467713853e-09
-3.262128665e-09
7.860106011e-09
-3.557976158e-09
8.242611508e-09
-3.852992962e-09
8.613455873e-09
-4.143623931e-09
8.970636734e-09
-4.425838294e-09
9.311907873e-09
-4.695285152e-09
9.634764527e-09
-4.947690169e-09
9.936442078e-09
-5.178784328e-09
1.021391002e-08
-5.380123083e-09
1.04638597e-08
-5.548350117e-09
1.068269977e-08
-5.680679482e-09
1.086695277e-08
-5.768486107e-09
1.101325279e-08
-5.807409166e-09
1.11180356e-08
-5.793450941e-09
1.117765444e-08
-5.723296528e-09
1.118879723e-08
-5.595003869e-09
1.114814597e-08
-5.408260623e-09
1.105243862e-08
-5.164611833e-09
1.089852838e-08
-4.867552932e-09
1.068343775e-08
-4.522445652e-09
1.040439939e-08
-4.136040018e-09
1.005725211e-08
-3.716155876e-09
9.637568129e-09
-3.271744193e-09
9.141227659e-09
-2.81273484e-09
8.564444714e-09
-2.3498916e-09
7.90378019e-09
-1.894643805e-09
7.156142904e-09
-1.458832869e-09
6.318774914e-09
-1.053919921e-09
5.389219115e-09
-6.895983308e-10
4.365268715e-09
-3.773891776e-10
3.244900052e-09
-1.462596676e-10
2.026196265e-09
7.073164614e-10
-8.72277245e-12
2.259049507e-10
-3.587172766e-11
6.776394096e-10
-8.211902569e-11
1.129119459e-09
-1.469286625e-10
1.580158768e-09
-2.297612516e-10
2.030549885e-09
-3.300647535e-10
2.480054714e-09
-4.471338345e-10
2.928395169e-09
-5.801097429e-10
3.375243653e-09
-7.279935876e-10
3.820213311e-09
-8.896298125e-10
4.262848006e-09
-1.063682308e-09
4.702612045e-09
-1.248614542e-09
5.138879682e-09
-1.442687365e-09
5.570924557e-09
-1.643975853e-09
5.997909372e-09
-1.850340973e-09
6.418874627e-09
-2.059403206e-09
6.832728076e-09
-2.268573937e-09
7.238235885e-09
-2.475074835e-09
7.634013378e-09
-2.67595099e-09
8.018517078e-09
-2.868099894e-09
8.390038359e-09
-3.048313034e-09
8.746698947e-09
-3.213337538e-09
9.086448911e-09
-3.359974658e-09
9.407067164e-09
-3.485126053e-09
9.706165255e-09
-3.585620854e-09
9.981237495e-09
-3.65847566e-09
1.022979048e-08
-3.705075525e-09
1.044922516e-08
-3.722602013e-09
1.063686497e-08
-3.708376584e-09
1.078980904e-08
-3.665773762e-09
1.090491045e-08
-3.594705795e-09
1.097898447e-08
-3.495674875e-09
1.100882892e-08
-3.369749921e-09
1.099124732e-08
-3.218139053e-09
1.092306069e-08
-3.042129753e-09
1.08011206e-08
-2.843015199e-09
1.062232146e-08
-2.621954859e-09
1.038361074e-08
-2.380254428e-09
1.008199573e-08
-2.120195547e-09
9.714545643e-09
-1.845596579e-09
9.278435599e-09
-1.561785154e-09
8.770996864e-09
-1.275412095e-09
8.189754756e-09
-9.943128172e-10
7.532454249e-09
-7.27385893e-10
6.797072808e-09
-4.844351657e-10
5.981819961e-09
-2.761114853e-10
5.085122866e-09
-1.145856725e-10
4.105597006e-09
-1.397644279e-11
3.042000404e-09
1.808463261e-11
1.893171757e-09
6.579768567e-10
-1.014357377e-11
2.363686948e-10
-3.972196294e-11
7.089663159e-10
-8.796191251e-11
1.181094895e-09
-1.546677186e-10
1.652420332e-09
-2.394123075e-10
2.122584991e-09
-3.415454125e-10
2.591196856e-09
-4.602663533e-10
3.057819342e-09
-5.946110654e-10
3.52196128e-09
-7.434324489e-10
3.983067051e-09
-9.054027342e-10
4.440506886e-09
-1.079016193e-09
4.893567444e-09
-1.262587258e-09
5.341442717e-09
-1.454249485e-09
5.78322541e-09
-1.651957656e-09
6.217898977e-09
-1.853493158e-09
6.644330455e-09
-2.056474343e-09
7.061264532e-09
-2.25837212e-09
7.467318632e-09
-2.456527867e-09
7.860979675e-09
-2.64816681e-09
8.240602524e-09
-2.830446825e-09
8.604410312e-09
-3.000683561e-09
8.950496711e-09
-3.156395895e-09
9.276830288e-09
-3.293074472e-09
9.581262908e-09
-3.40929242e-09
9.86154271e-09
-3.504177463e-09
1.011541066e-08
-3.573886294e-09
1.034080036e-08
-3.617420773e-09
1.053561568e-08
-3.634111738e-09
1.069775521e-08
-3.623443035e-09
1.082473598e-08
-3.585263044e-09
1.091371799e-08
-3.519746218e-09
1.096184519e-08
-3.427419234e-09
1.096625984e-08
-3.309163728e-09
1.092411966e-08
-3.166223201e-09
1.083261287e-08
-3.000218838e-09
1.068897234e-08
-2.81316357e-09
1.04904889e-08
-2.607478604e-09
1.023452345e-08
-2.386019352e-09
9.918517603e-09
-2.15210094e-09
9.540002682e-09
-1.909493581e-09
9.096608685e-09
-1.662372625e-09
8.586070776e-09
-1.415229457e-09
8.006230969e-09
-1.172754369e-09
7.355034304e-09
-9.397179725e-10
6.630519141e-09
-7.208422414e-10
5.830801857e-09
-5.20429454e-10
4.954056608e-09
-3.416776448e-10
3.998491265e-09
-1.885084976e-10
2.962320996e-09
-7.395465612e-11
1.843742401e-09
6.409307651e-10
-7.616064454e-12
2.437489292e-10
-3.090015288e-11
7.310346361e-10
-7.004873593e-11
1.217609114e-09
-1.245172985e-10
1.702973415e-09
-1.936736803e-10
2.186606904e-09
-2.76776675e-10
2.667956508e-09
-3.729183473e-10
3.146427188e-09
-4.810369191e-10
3.621372938e-09
-5.999324733e-10
4.092088248e-09
-7.28266195e-10
4.557800037e-09
-8.645638745e-10
5.017660196e-09
-1.007227123e-09
5.470738798e-09
-1.154547069e-09
5.916018106e-09
-1.304720765e-09
6.352387495e-09
-1.455870895e-09
6.778639435e-09
-1.606068137e-09
7.193466642e-09
-1.753356005e-09
7.595460519e-09
-1.895782452e-09
7.983110957e-09
-2.031445434e-09
8.354807696e-09
-2.158512204e-09
8.708843144e-09
-2.275072144e-09
9.043416843e-09
-2.379158579e-09
9.356641519e-09
-2.471039795e-09
9.646550671e-09
-2.548446325e-09
9.911172322e-09
-2.608984297e-09
1.014850219e-08
-2.653491517e-09
1.035634855e-08
-2.680466488e-09
1.053246807e-08
-2.688404025e-09
1.067456314e-08
-2.676121653e-09
1.078027786e-08
-2.642819471e-09
1.084720661e-08
-2.588126749e-09
1.087291474e-08
-2.512092083e-09
1.085495833e-08
-2.415172318e-09
1.079090299e-08
-2.298229396e-09
1.067834148e-08
-2.162530037e-09
1.051491024e-08
-2.009746256e-09
1.029830448e-08
-1.841957424e-09
1.002629195e-08
-1.661654746e-09
9.696725008e-09
-1.471745126e-09
9.307550842e-09
-1.275555011e-09
8.856819617e-09
-1.076834201e-09
8.342690237e-09
-8.797601774e-10
7.763433279e-09
-6.889492625e-10
7.117430893e-09
-5.094687956e-10
6.403173214e-09
-3.468272364e-10
5.619251012e-09
-2.070004576e-10
4.764344051e-09
-9.685647438e-11
3.837204486e-09
-2.465080871e-11
2.836634194e-09
4.118960148e-12
1.761455688e-09
6.104886042e-10
-7.356076223e-12
2.512600155e-10
-2.895904869e-11
7.53497219e-10
-6.431109053e-11
1.254788399e-09
-1.13095751e-10
1.754476551e-09
-1.748067029e-10
2.25188574e-09
-2.487540488e-10
2.746310926e-09
-3.341036592e-10
3.237009469e-09
-4.298767554e-10
3.723193316e-09
-5.349514046e-10
4.204021881e-09
-6.480767328e-10
4.678595518e-09
-7.678860421e-10
5.145949827e-09
-8.929084974e-10
5.605050713e-09
-1.021583098e-09
6.054790364e-09
-1.152274653e-09
6.493984202e-09
-1.283292132e-09
6.921368866e-09
-1.412909038e-09
7.335601232e-09
-1.539383519e-09
7.735258537e-09
-1.660973795e-09
8.118839535e-09
-1.775970477e-09
8.484766705e-09
-1.882829005e-09
8.831389266e-09
-1.980193189e-09
9.156986956e-09
-2.065568732e-09
9.459775544e-09
-2.138410444e-09
9.737913898e-09
-2.198432172e-09
9.989637812e-09
-2.243537988e-09
1.021316037e-08
-2.273229337e-09
1.040640451e-08
-2.28693244e-09
1.056725782e-08
-2.284118646e-09
1.069357787e-08
-2.264460486e-09
1.078320058e-08
-2.227869151e-09
1.083394964e-08
-2.174512572e-09
1.084364727e-08
-2.104833315e-09
1.081012523e-08
-2.019560648e-09
1.0731236e-08
-1.919714732e-09
1.06048633e-08
-1.806604338e-09
1.042893191e-08
-1.681816953e-09
1.020141595e-08
-1.547203007e-09
9.920345762e-09
-1.404852143e-09
9.583812777e-09
-1.257061989e-09
9.189972218e-09
-1.106300073e-09
8.737043484e-09
-9.551567528e-10
8.223307983e-09
-8.062907049e-10
7.64710445e-09
-6.623666348e-10
7.0068218e-09
-5.259989187e-10
6.300889658e-09
-3.996937751e-10
5.527767021e-09
-2.856637859e-10
4.685929432e-09
-1.854842388e-10
3.773855267e-09
-1.010836204e-10
2.790011886e-09
-3.912665322e-11
1.732843083e-09
6.007693996e-10
-5.43051755e-12
2.565746e-10
-2.190361217e-11
7.693809153e-10
-4.943948107e-11
1.281041126e-09
-8.763372771e-11
1.790764038e-09
-1.359911902e-10
2.297743519e-09
-1.939160239e-10
2.801149278e-09
-2.606890867e-10
3.300119577e-09
-3.354828349e-10
3.793754715e-09
-4.173730088e-10
4.281111178e-09
-5.053430868e-10
4.761196378e-09
-5.982943956e-10
5.232964108e-09
-6.950587866e-10
5.695310711e-09
-7.944119444e-10
6.14707203e-09
-8.950876416e-10
6.587021225e-09
-9.957922462e-10
7.013867401e-09
-1.095219496e-09
7.426255151e-09
-1.192067616e-09
7.822764969e-09
-1.285063906e-09
8.201914563e-09
-1.37297175e-09
8.562161009e-09
-1.454488927e-09
8.901903733e-09
-1.528243584e-09
9.219488323e-09
-1.59425246e-09
9.513211017e-09
-1.650897049e-09
9.781364339e-09
-1.696310085e-09
1.002217869e-08
-1.730665033e-09
1.023379266e-08
-1.752932999e-09
1.04143039e-08
-1.762346183e-09
1.056177806e-08
-1.758452636e-09
1.067425826e-08
-1.740999298e-09
1.07497747e-08
-1.70992507e-09
1.078635438e-08
-1.66537804e-09
1.078203035e-08
-1.607721275e-09
1.073484887e-08
-1.537534501e-09
1.064287825e-08
-1.455614775e-09
1.05042193e-08
-1.362975305e-09
1.031701305e-08
-1.260842297e-09
1.007944709e-08
-1.150651322e-09
9.789761008e-09
-1.034041713e-09
9.446250528e-09
-9.128521477e-10
9.047270486e-09
-7.891174409e-10
8.591236318e-09
-6.650664366e-10
8.076624179e-09
-5.431241066e-10
7.501969611e-09
-4.259200478e-10
6.865864803e-09
-3.16298921e-10
6.166954506e-09
-2.173206537e-10
5.40393013e-09
-1.322738364e-10
4.575521935e-09
-6.489802782e-11
3.680489404e-09
-1.972350012e-11
2.717609119e-09
-5.73669792e-14
1.685659873e-09
5.834115083e-10
-4.851209977e-12
2.615013589e-10
-1.915252273e-11
7.841073642e-10
-4.26001558e-11
1.305388607e-09
-7.493148984e-11
1.824434611e-09
-1.157537824e-10
2.340323655e-09
-1.645490414e-10
2.852114505e-09
-2.206951113e-10
3.358840289e-09
-2.834687434e-10
3.859503166e-09
-3.520527031e-10
4.353069616e-09
-4.255486381e-10
4.838466317e-09
-5.029878983e-10
5.314576605e-09
-5.833425103e-10
5.780237633e-09
-6.655372607e-10
6.234238194e-09
-7.484624584e-10
6.675317251e-09
-8.309879626e-10
7.102163237e-09
-9.119761103e-10
7.513414072e-09
-9.902908001e-10
7.90765799e-09
-1.064817316e-09
8.283435046e-09
-1.13454697e-09
8.639239346e-09
-1.198599479e-09
8.973521973e-09
-1.255364153e-09
9.284695238e-09
-1.304447368e-09
9.57113838e-09
-1.345643441e-09
9.831281158e-09
-1.377602678e-09
1.00634683e-08
-1.399984571e-09
1.026592708e-08
-1.412421493e-09
1.043686423e-08
-1.414606431e-09
1.057447095e-08
-1.406377983e-09
1.067692971e-08
-1.38773229e-09
1.074242118e-08
-1.358828189e-09
1.076913118e-08
-1.319983482e-09
1.075525736e-08
-1.271660049e-09
1.069898675e-08
-1.214458863e-09
1.059852879e-08
-1.149122084e-09
1.045212678e-08
-1.076532693e-09
1.025806225e-08
-9.977097042e-10
1.001465827e-08
-9.137993043e-10
9.720281498e-09
-8.260629174e-10
9.373342921e-09
-7.358623722e-10
8.972297175e-09
-6.446401305e-10
8.515640302e-09
-5.53896677e-10
8.001906069e-09
-4.651647138e-10
7.429660754e-09
-3.799754897e-10
6.797496665e-09
-2.998217791e-10
6.104015761e-09
-2.261251769e-10
5.347825249e-09
-1.601419635e-10
4.527537906e-09
-1.027899705e-10
3.641764178e-09
-5.520059021e-11
2.68910436e-09
-2.098924401e-11
1.668141597e-09
5.774418604e-10
-3.518846258e-12
2.649618706e-10
-1.415225373e-11
7.944474553e-10
-3.187529456e-11
1.322470398e-09
-5.642143241e-11
1.848028116e-09
-8.74559371e-11
2.37010995e-09
-1.24571292e-10
2.887689693e-09
-1.672783231e-10
3.399720446e-09
-2.150158969e-10
3.905130278e-09
-2.671585442e-10
4.402818469e-09
-3.230215044e-10
4.89165222e-09
-3.818688312e-10
5.370463868e-09
-4.429227972e-10
5.838048691e-09
-5.053737374e-10
6.293163262e-09
-5.683901349e-10
6.734524392e-09
-6.311283684e-10
7.160808711e-09
-6.927442278e-10
7.570652839e-09
-7.524095812e-10
7.962654161e-09
-8.093175506e-10
8.335372183e-09
-8.626139931e-10
8.687330428e-09
-9.113892663e-10
9.017018918e-09
-9.556523275e-10
9.322897042e-09
-9.943372671e-10
9.603429191e-09
-1.026201446e-09
9.857031908e-09
-1.051384389e-09
1.008206679e-08
-1.069256511e-09
1.027687247e-08
-1.079357721e-09
1.04397705e-08
-1.081428937e-09
1.056907134e-08
-1.075293221e-09
1.066307907e-08
-1.060853685e-09
1.072009725e-08
-1.038622459e-09
1.073843595e-08
-1.008520917e-09
1.071641776e-08
-9.705497082e-10
1.065232835e-08
-9.255904183e-10
1.054447878e-08
-8.740849855e-10
1.039121655e-08
-8.166237555e-10
1.019092856e-08
-7.539553505e-10
9.942043951e-09
-6.869348969e-10
9.643035738e-09
-6.16518838e-10
9.292421264e-09
-5.437696299e-10
8.888761558e-09
-4.69861886e-10
8.430659523e-09
-3.9607982e-10
7.916756991e-09
-3.237598458e-10
7.345730632e-09
-2.544442898e-10
6.716286783e-09
-1.897804676e-10
6.027137605e-09
-1.314267172e-10
5.277002461e-09
-8.12225225e-11
4.464619642e-09
-4.122061063e-11
3.588740521e-09
-1.390575996e-11
2.64812238e-09
-1.24452521e-12
1.641520182e-09
5.67680723e-10
-3.058444898e-12
2.680580595e-10
-1.209459142e-11
8.036990858e-10
-2.692480652e-11
1.337755004e-09
-4.736236556e-11
1.869142056e-09
-7.313668309e-11
2.396771888e-09
-1.038971441e-10
2.919545085e-09
-1.392256368e-10
3.436347128e-09
-1.786403557e-10
3.94604478e-09
-2.216006634e-10
4.447479739e-09
-2.675149586e-10
4.939468483e-09
-3.157485308e-10
5.420800193e-09
-3.656314815e-10
5.890235157e-09
-4.164675257e-10
6.34650363e-09
-4.675432048e-10
6.788305166e-09
-5.181365253e-10
7.214308499e-09
-5.675233922e-10
7.62315189e-09
-6.149899713e-10
8.013443952e-09
-6.598859125e-10
8.383764888e-09
-7.016409265e-10
8.732668409e-09
-7.392300026e-10
9.058685702e-09
-7.723799247e-10
9.360327758e-09
-8.009344388e-10
9.636149785e-09
-8.240365954e-10
9.884638266e-09
-8.414640396e-10
1.010421048e-08
-8.529629035e-10
1.029327171e-08
-8.583166103e-10
1.045021844e-08
-8.573952713e-10
1.057344267e-08
-8.501819377e-10
1.066132079e-08
-8.367510326e-10
1.07122188e-08
-8.167902818e-10
1.072451135e-08
-7.90743084e-10
1.069658542e-08
-7.591830435e-10
1.062687295e-08
-7.221036188e-10
1.051382783e-08
-6.801531663e-10
1.035592285e-08
-6.340372674e-10
1.015165211e-08
-5.844982062e-10
9.899532632e-09
-5.323458476e-10
9.598105175e-09
-4.784421963e-10
9.245934204e-09
-4.236762329e-10
8.841607122e-09
-3.689372895e-10
8.383732762e-09
-3.150982936e-10
7.870939246e-09
-2.630602746e-10
7.301871298e-09
-2.13586764e-10
6.675187086e-09
-1.674076535e-10
5.989563447e-09
-1.253205695e-10
5.243688217e-09
-8.797633811e-11
4.436247203e-09
-5.58624465e-11
3.565917664e-09
-2.95946615e-11
2.631363452e-09
-1.106833314e-11
1.631235965e-09
5.641739125e-10
-2.189837727e-12
2.702179926e-10
-8.792162812e-12
8.101525117e-10
-1.977808241e-11
1.348414166e-09
-3.498173263e-11
1.883860466e-09
-5.41913779e-11
2.41534611e-09
-7.714675642e-11
2.941716876e-09
-1.035343018e-10
3.461805994e-09
-1.329933472e-10
3.974431238e-09
-1.651224043e-10
4.478392439e-09
-1.994832732e-10
4.972469505e-09
-2.356070108e-10
5.455420824e-09
-2.730002625e-10
5.925982102e-09
-3.111516635e-10
6.382865545e-09
-3.4953852e-10
6.824759356e-09
-3.876340704e-10
7.250327728e-09
-4.249182499e-10
7.658211145e-09
-4.608812836e-10
8.047027113e-09
-4.949781979e-10
8.415371311e-09
-5.266215308e-10
8.761819059e-09
-5.55836268e-10
9.084943293e-09
-5.819553851e-10
9.383310489e-09
-6.041682986e-10
9.655445355e-09
-6.22562955e-10
9.899847991e-09
-6.366989564e-10
1.011500382e-08
-6.462112832e-10
1.029938695e-08
-6.511883841e-10
1.045146478e-08
-6.513177084e-10
1.05697022e-08
-6.46319456e-10
1.065253713e-08
-6.365066594e-10
1.06983888e-08
-6.218407584e-10
1.070568877e-08
-6.024162723e-10
1.067288414e-08
-5.784753356e-10
1.059849808e-08
-5.502925958e-10
1.048107355e-08
-5.182393941e-10
1.031916545e-08
-4.827686921e-10
1.011134204e-08
-4.443976786e-10
9.856185749e-09
-4.036995528e-10
9.552294035e-09
-3.61296158e-10
9.19828006e-09
-3.178510701e-10
8.792773181e-09
-2.740649407e-10
8.334419286e-09
-2.306731312e-10
7.821880939e-09
-1.884407556e-10
7.253837341e-09
-1.48174264e-10
6.628984069e-09
-1.107394197e-10
5.946049992e-09
-7.705450957e-11
5.203787753e-09
-4.809639926e-11
4.400952824e-09
-2.495612951e-11
3.536295823e-09
-8.962531369e-12
2.608557753e-09
-1.233701628e-12
1.616475278e-09
5.587774477e-10
-1.888824534e-12
2.721259889e-10
-7.478446751e-12
8.158531141e-10
-1.666089154e-11
1.357829801e-09
-2.931507417e-11
1.896861815e-09
-4.526715494e-11
2.431753756e-09
-6.429181576e-11
2.96130339e-09
-8.611832677e-11
3.484298535e-09
-1.104335356e-10
3.999515073e-09
-1.368882331e-10
4.505718578e-09
-1.651056249e-10
5.001660568e-09
-1.946858603e-10
5.486077404e-09
-2.252091086e-10
5.957683997e-09
-2.562398624e-10
6.415177194e-09
-2.873308838e-10
6.857235679e-09
-3.180311898e-10
7.282520072e-09
-3.479180811e-10
7.689673893e-09
-3.766039691e-10
8.077324412e-09
-4.034188149e-10
8.444083274e-09
-4.281590781e-10
8.788547397e-09
-4.506659393e-10
9.109330891e-09
-4.703202342e-10
9.405054134e-09
-4.869410138e-10
9.674273394e-09
-5.003264604e-10
9.915520066e-09
-5.102753926e-10
1.01273101e-08
-5.166393807e-10
1.03081404e-08
-5.189967754e-10
1.045650425e-08
-5.17426234e-10
1.057089381e-08
-5.120657791e-10
1.064981816e-08
-5.026522247e-10
1.069180548e-08
-4.894102497e-10
1.069539111e-08
-4.726114106e-10
1.065912044e-08
-4.525373966e-10
1.058155116e-08
-4.294958772e-10
1.046125395e-08
-4.038253339e-10
1.029681313e-08
-3.758951666e-10
1.008682713e-08
-3.461053845e-10
9.829908641e-09
-3.148849454e-10
9.524684584e-09
-2.826909887e-10
9.169795753e-09
-2.500061241e-10
8.763896224e-09
-2.173335116e-10
8.305652456e-09
-1.851912924e-10
7.793742161e-09
-1.541069565e-10
7.226852829e-09
-1.246032888e-10
6.603679981e-09
-9.717919164e-11
5.922925143e-09
-7.229533375e-11
5.183293306e-09
-5.034346982e-11
4.383490124e-09
-3.161833053e-11
3.522220532e-09
-1.649967501e-11
2.598185965e-09
-6.049717043e-12
1.610076661e-09
5.565713548e-10
-1.347884861e-12
2.734582512e-10
-5.404636714e-12
8.198328969e-10
-1.214502538e-11
1.36440066e-09
-2.146482302e-11
1.905929928e-09
-3.323021933e-11
2.443189688e-09
-4.727733752e-11
2.974944373e-09
-6.341163812e-11
3.49995133e-09
-8.141133273e-11
4.01695905e-09
-1.01028821e-10
4.524705732e-09
-1.21989939e-10
5.021918053e-09
-1.439997997e-10
5.507310158e-09
-1.667498759e-10
5.979582829e-09
-1.899208214e-10
6.437423113e-09
-2.1319075e-10
6.879504176e-09
-2.362371702e-10
7.304485492e-09
-2.58714873e-10
7.711016901e-09
-2.802551458e-10
8.09774352e-09
-3.008485097e-10
8.463301078e-09
-3.200989665e-10
8.806316812e-09
-3.374880868e-10
9.125395126e-09
-3.529772062e-10
9.41912515e-09
-3.664213317e-10
9.686086374e-09
-3.774502482e-10
9.924850121e-09
-3.857375724e-10
1.013396744e-08
-3.913148113e-10
1.031196152e-08
-3.939926933e-10
1.04573547e-08
-3.936393466e-10
1.056867092e-08
-3.902345874e-10
1.064446846e-08
-3.837901485e-10
1.068333759e-08
-3.743607927e-10
1.068387269e-08
-3.620675583e-10
1.064467328e-08
-3.470818325e-10
1.056434452e-08
-3.296161679e-10
1.04414992e-08
-3.099205541e-10
1.027475941e-08
-2.882787293e-10
1.006275761e-08
-2.650048369e-10
9.804137344e-09
-2.404414299e-10
9.497553485e-09
-2.149559864e-10
9.141672253e-09
-1.889391042e-10
8.735170952e-09
-1.628028013e-10
8.276737499e-09
-1.369789299e-10
7.765069825e-09
-1.119195049e-10
7.198875128e-09
-8.809696033e-11
6.576868997e-09
-6.600513677e-11
5.897774449e-09
-4.615864276e-11
5.160320942e-09
-2.90956045e-11
4.363243155e-09
-1.541126046e-11
3.505282167e-09
-5.836930395e-12
2.585183065e-09
-1.028042246e-12
1.601681873e-09
5.535040525e-10
-1.147745943e-12
2.746159821e-10
-4.548156831e-12
8.232917696e-10
-1.01383099e-11
1.370113248e-09
-1.784331035e-11
1.913817252e-09
-2.755667029e-11
2.453142316e-09
-3.914113457e-11
2.986823774e-09
-5.243188843e-11
3.51359155e-09
-6.723817881e-11
4.032168736e-09
-8.334528248e-11
4.541270534e-09
-1.005185312e-10
5.039603269e-09
-1.185061015e-10
5.525863723e-09
-1.370550063e-10
5.998742496e-09
-1.559198776e-10
6.456918198e-09
-1.747068972e-10
6.899059558e-09
-1.932133154e-10
7.323825441e-09
-2.112818236e-10
7.729871118e-09
-2.285405787e-10
8.115856938e-09
-2.447662108e-10
8.480439265e-09
-2.597289751e-10
8.822261889e-09
-2.732504559e-10
9.13993336e-09
-2.85152612e-10
9.432043183e-09
-2.950582052e-10
9.697173593e-09
-3.028899961e-10
9.933900508e-09
-3.085949499e-10
1.01408031e-08
-3.118669019e-10
1.031647155e-08
-3.12712262e-10
1.045949661e-08
-3.111753777e-10
1.056847191e-08
-3.073181353e-10
1.064199601e-08
-3.01221892e-10
1.067867363e-08
-2.929851988e-10
1.067711629e-08
-2.827261974e-10
1.063594319e-08
-2.705853323e-10
1.055378176e-08
-2.567269044e-10
1.042926828e-08
-2.413383737e-10
1.026104821e-08
-2.246299201e-10
1.004777643e-08
-2.068323582e-10
9.788117325e-09
-1.881956429e-10
9.480744561e-09
-1.689860631e-10
9.124340807e-09
-1.494835139e-10
8.717597193e-09
-1.299794591e-10
8.259212599e-09
-1.107728069e-10
7.747892711e-09
-9.216701673e-11
7.182349004e-09
-7.446611534e-11
6.561297439e-09
-5.79704468e-11
5.883457068e-09
-4.297356565e-11
5.14754842e-09
-2.974548736e-11
4.352291792e-09
-1.850604015e-11
3.496405317e-09
-9.521314707e-12
2.578602891e-09
-3.422951165e-12
1.597591999e-09
5.520725661e-10
-8.24579553e-13
2.754321571e-10
-3.303120251e-12
8.25729329e-10
-7.416178092e-12
1.37413576e-09
-1.309744226e-11
1.919364102e-09
-2.02608168e-11
2.460129768e-09
-2.880017011e-11
2.995146376e-09
-3.858922689e-11
3.523123894e-09
-4.948519112e-11
4.042768839e-09
-6.13329623e-11
4.552782898e-09
-7.396811695e-11
5.051862365e-09
-8.721808151e-11
5.538697854e-09
-1.008960991e-10
6.01197417e-09
-1.147969816e-10
6.470370317e-09
-1.288570536e-10
6.912559824e-09
-1.428519328e-10
7.337211217e-09
-1.565001405e-10
7.742985084e-09
-1.698258536e-10
8.128530592e-09
-1.825760322e-10
8.492491551e-09
-1.944660854e-10
8.833486551e-09
-2.053793442e-10
9.150124191e-09
-2.151122384e-10
9.441005633e-09
-2.234633909e-10
9.704725951e-09
-2.30250595e-10
9.939875854e-09
-2.353539796e-10
1.014505898e-08
-2.386799229e-10
1.03189038e-08
-2.401495161e-10
1.046003913e-08
-2.397318573e-10
1.056709492e-08
-2.374316081e-10
1.063870263e-08
-2.332821718e-10
1.067349644e-08
-2.273436442e-10
1.06701149e-08
-2.1970118e-10
1.062720232e-08
-2.104634113e-10
1.054340965e-08
-1.997606653e-10
1.04173952e-08
-1.877439035e-10
1.024782497e-08
-1.745832036e-10
1.003337292e-08
-1.604661197e-10
9.772720975e-09
-1.455961871e-10
9.464558905e-09
-1.301916748e-10
9.107584084e-09
-1.144844194e-10
8.70050114e-09
-9.871874545e-11
8.242021472e-09
-8.315058033e-11
7.730862656e-09
-6.804718955e-11
7.165747803e-09
-5.368864885e-11
6.545404759e-09
-4.036705291e-11
5.868565239e-09
-2.838769486e-11
5.133963793e-09
-1.806783289e-11
4.340336646e-09
-9.75108183e-12
3.486420228e-09
-3.859552554e-12
2.570949411e-09
-7.961873822e-13
1.592655307e-09
5.502631862e-10
-6.902043152e-13
2.761277712e-10
-2.736613978e-12
8.278077063e-10
-6.102143901e-12
1.377568162e-09
-1.074224147e-11
1.924102588e-09
-1.659679893e-11
2.466108557e-09
-2.356952235e-11
3.002283609e-09
-3.157140669e-11
3.531323827e-09
-4.051147029e-11
4.051920208e-09
-5.024364235e-11
4.562759857e-09
-6.063240603e-11
5.062526461e-09
-7.153143229e-11
5.549899088e-09
-8.278104361e-11
6.023553587e-09
-9.422063848e-11
6.482164148e-09
-1.056938717e-10
6.92440102e-09
-1.170174693e-10
7.348930838e-09
-1.280246355e-10
7.754410402e-09
-1.384888078e-10
8.139478798e-09
-1.482636873e-10
8.502768322e-09
-1.572213333e-10
8.842915121e-09
-1.651301284e-10
9.158552726e-09
-1.71887022e-10
9.448311837e-09
-1.774137764e-10
9.710821696e-09
-1.81658299e-10
9.944711593e-09
-1.845937203e-10
1.014861232e-08
-1.862043481e-10
1.032115722e-08
-1.864798696e-10
1.046098261e-08
-1.854197711e-10
1.056672859e-08
-1.830370259e-10
1.063703959e-08
-1.79359783e-10
1.067056506e-08
-1.744326328e-10
1.066595998e-08
-1.68316876e-10
1.062188537e-08
-1.610904741e-10
1.053700869e-08
-1.528472889e-10
1.041000409e-08
-1.436960655e-10
1.023955258e-08
-1.337596225e-10
1.00243421e-08
-1.23173413e-10
9.763067327e-09
-1.120848141e-10
9.454429567e-09
-1.006510312e-10
9.097136276e-09
-8.903767558e-11
8.689900651e-09
-7.741772737e-11
8.231440964e-09
-6.596879832e-11
7.720479849e-09
-5.48716768e-11
7.155743419e-09
-4.430791056e-11
6.535960308e-09
-3.445788174e-11
5.859860579e-09
-2.549882757e-11
5.126174527e-09
-1.759608856e-11
4.333631414e-09
-1.089071909e-11
3.48095805e-09