/*--------------------------------*- C++ -*----------------------------------*\
| =========                 |                                                 |
| \\      /  F ield         | OpenFOAM: The Open Source CFD Toolbox           |
|  \\    /   O peration     | Version:  5.x                                   |
|   \\  /    A nd           | Web:      www.OpenFOAM.org                      |
|    \\/     M anipulation  |                                                 |
\*---------------------------------------------------------------------------*/
FoamFile
{
    version     2.0;
    format      ascii;
    class       volScalarField;
    location    "0.004";
    object      S;
}
// * * * * * * * * * * * * * * * * * * * * * * * * * * * * * * * * * * * * * //

dimensions      [0 0 0 0 0 0 0];

internalField   nonuniform List<scalar> 
7950
(
0.00391000029
0.003909979784
0.003909956054
0.003909921134
0.00390987516
0.00390981751
0.003909747803
0.003909665617
0.003909570468
0.00390946193
0.003909339329
0.003909202086
0.003909049359
0.003908880414
0.003908694289
0.003908489861
0.003908265968
0.003908021324
0.003907754479
0.003907463771
0.003907147419
0.003906803433
0.003906429526
0.003906023351
0.003905582082
0.003905102741
0.003904581976
0.003904016069
0.003903400886
0.00390273186
0.003902003957
0.003901211672
0.003900348868
0.003899406677
0.003898379408
0.003897264119
0.003896038008
0.003894696073
0.003893235493
0.003891631863
0.003889874764
0.003887947984
0.00388583311
0.003883509965
0.003880955835
0.003878143933
0.003875046399
0.003871652111
0.00386794189
0.003863672522
1.347547929e-06
1.348131511e-06
1.348955732e-06
1.349945889e-06
1.351220337e-06
1.352807122e-06
1.354706867e-06
1.356918334e-06
1.359440374e-06
1.362270113e-06
1.365402774e-06
1.368831967e-06
1.37254928e-06
1.376543606e-06
1.380800483e-06
1.385301287e-06
1.390022304e-06
1.394933691e-06
1.399998214e-06
1.405169702e-06
1.410391678e-06
1.415596161e-06
1.420701609e-06
1.42560907e-06
1.430201299e-06
1.434341e-06
1.437867485e-06
1.440593016e-06
1.442301293e-06
1.442742708e-06
1.441636099e-06
1.43866064e-06
1.433449974e-06
1.425588285e-06
1.414614202e-06
1.400022656e-06
1.38129629e-06
1.357660446e-06
1.328536363e-06
1.29315463e-06
1.250716015e-06
1.200221061e-06
1.140466688e-06
1.069971403e-06
9.868408171e-07
8.885400717e-07
7.714518214e-07
6.298341985e-07
4.529293713e-07
2.130231873e-07
1.185306827e-09
1.18489791e-09
1.185203509e-09
1.1862813e-09
1.187863997e-09
1.189879366e-09
1.192313887e-09
1.19515518e-09
1.198388183e-09
1.201999888e-09
1.205977176e-09
1.210303926e-09
1.214958211e-09
1.219911153e-09
1.225129457e-09
1.2305726e-09
1.236189069e-09
1.241915448e-09
1.247674206e-09
1.253368137e-09
1.258903641e-09
1.264139789e-09
1.26889268e-09
1.273010947e-09
1.2762936e-09
1.278476293e-09
1.279287255e-09
1.278410881e-09
1.275494913e-09
1.270144035e-09
1.261927658e-09
1.250370734e-09
1.23492133e-09
1.214981164e-09
1.189922944e-09
1.15913219e-09
1.122094292e-09
1.077954904e-09
1.02636054e-09
9.671184825e-10
8.999260666e-10
8.246699507e-10
7.413895417e-10
6.503397313e-10
5.520914792e-10
4.476716231e-10
3.387767542e-10
2.282235217e-10
1.212610661e-10
2.94117776e-11
1.651947641e-12
1.652512651e-12
1.653706333e-12
1.655483717e-12
1.657854207e-12
1.660804512e-12
1.664314136e-12
1.66835695e-12
1.672900053e-12
1.677905305e-12
1.68332213e-12
1.689082515e-12
1.695165663e-12
1.701432964e-12
1.707790214e-12
1.714168949e-12
1.720378662e-12
1.726273179e-12
1.731658306e-12
1.736297589e-12
1.739967412e-12
1.742350579e-12
1.743052917e-12
1.741746327e-12
1.737986329e-12
1.731275784e-12
1.721309944e-12
1.707098308e-12
1.688123169e-12
1.664161607e-12
1.634307584e-12
1.597959176e-12
1.554491628e-12
1.503264333e-12
1.443709313e-12
1.375432447e-12
1.29834822e-12
1.212047017e-12
1.116916858e-12
1.013807998e-12
9.035579105e-13
7.875900983e-13
6.677818607e-13
5.465186234e-13
4.267728603e-13
3.121768157e-13
2.070673538e-13
1.165350073e-13
4.688479783e-14
6.274337411e-15
3.069125861e-15
3.068297359e-15
3.068966585e-15
3.071471673e-15
3.07513718e-15
3.079719975e-15
3.085131795e-15
3.091268579e-15
3.098002081e-15
3.105191311e-15
3.112660401e-15
3.120193109e-15
3.127710495e-15
3.134768542e-15
3.141091833e-15
3.146483631e-15
3.150383668e-15
3.152390223e-15
3.151979537e-15
3.148539318e-15
3.141493025e-15
3.130068295e-15
3.113342434e-15
3.090577999e-15
3.060846783e-15
3.023141122e-15
2.976546447e-15
2.919653558e-15
2.851712263e-15
2.772198507e-15
2.680188633e-15
2.575182722e-15
2.456882461e-15
2.325167237e-15
2.180246302e-15
2.022836995e-15
1.85432945e-15
1.675706401e-15
1.489235341e-15
1.297939633e-15
1.104810429e-15
9.137641003e-16
7.29205665e-16
5.55903031e-16
3.988381146e-16
2.62952817e-16
1.527306337e-16
7.165551456e-17
2.177252852e-17
1.581245541e-18
6.899674006e-18
6.899739422e-18
6.900704976e-18
6.903802834e-18
6.90819574e-18
6.91341949e-18
6.919217226e-18
6.925259005e-18
6.931132662e-18
6.936361219e-18
6.940357292e-18
6.942441344e-18
6.94229283e-18
6.93856149e-18
6.930436169e-18
6.917311593e-18
6.897592396e-18
6.870182389e-18
6.833696715e-18
6.786565917e-18
6.727304402e-18
6.654176009e-18
6.565777155e-18
6.459359175e-18
6.333397372e-18
6.187297529e-18
6.018553158e-18
5.8257231e-18
5.608220303e-18
5.365527565e-18
5.097518672e-18
4.804837274e-18
4.488792281e-18
4.151340475e-18
3.795311122e-18
3.424661427e-18
3.04458707e-18
2.659509798e-18
2.276161954e-18
1.902165769e-18
1.544483254e-18
1.210911348e-18
9.089743929e-19
6.454277949e-19
4.257402311e-19
2.534540373e-19
1.294048433e-19
5.099235136e-20
1.185936616e-20
4.838670398e-22
1.804524988e-20
1.803760548e-20
1.802753953e-20
1.802197208e-20
1.80160707e-20
1.800779494e-20
1.799621504e-20
1.798013952e-20
1.795810635e-20
1.792847276e-20
1.788928435e-20
1.783838196e-20
1.777461506e-20
1.769382822e-20
1.759365697e-20
1.747232812e-20
1.732530099e-20
1.714967919e-20
1.694189168e-20
1.669810975e-20
1.641510618e-20
1.608927703e-20
1.571699669e-20
1.529395991e-20
1.481863364e-20
1.429060804e-20
1.370713175e-20
1.306903247e-20
1.237789839e-20
1.163517906e-20
1.084506332e-20
1.001322253e-20
9.147073466e-21
8.255653519e-21
7.349847739e-21
6.442613082e-21
5.548723407e-21
4.680673242e-21
3.854542655e-21
3.086349569e-21
2.388949305e-21
1.774583378e-21
1.252515246e-21
8.280983682e-22
5.02036463e-22
2.697424592e-22
1.209274222e-22
3.991022256e-23
7.059206271e-24
1.589807067e-25
5.282184535e-23
5.279770916e-23
5.273778016e-23
5.26721243e-23
5.258714007e-23
5.247679926e-23
5.23381706e-23
5.216734357e-23
5.19595105e-23
5.170927092e-23
5.141034823e-23
5.10561061e-23
5.064303955e-23
5.015847589e-23
4.959604168e-23
4.895127368e-23
4.821166324e-23
4.737045988e-23
4.641933599e-23
4.534973991e-23
4.415645985e-23
4.283674073e-23
4.137768384e-23
3.97775071e-23
3.804462456e-23
3.617809185e-23
3.418060549e-23
3.206514879e-23
2.98444558e-23
2.753119921e-23
2.514746323e-23
2.271756695e-23
2.026949303e-23
1.783417572e-23
1.544530441e-23
1.313901414e-23
1.095230451e-23
8.914227716e-24
7.057730027e-24
5.410700844e-24
3.99003814e-24
2.806844467e-24
1.862164608e-24
1.146274463e-24
6.388789683e-25
3.100677573e-25
1.222811082e-25
3.392568816e-26
4.59287342e-27
5.818207239e-29
1.700194607e-25
1.698750181e-25
1.69524049e-25
1.69107563e-25
1.685640901e-25
1.678703986e-25
1.670170647e-25
1.659911291e-25
1.64776915e-25
1.633573436e-25
1.617131203e-25
1.59824923e-25
1.576841602e-25
1.552528336e-25
1.525163579e-25
1.494670025e-25
1.460723972e-25
1.423211984e-25
1.381988515e-25
1.336934146e-25
1.288062174e-25
1.235402599e-25
1.178786457e-25
1.118482778e-25
1.054913526e-25
9.882491018e-26
9.188504028e-26
8.473645176e-26
7.74377467e-26
7.004724089e-26
6.265092808e-26
5.533456592e-26
4.818886282e-26
4.130640698e-26
3.477947287e-26
2.869757851e-26
2.314208317e-26
1.816687481e-26
1.382449678e-26
1.014514034e-26
7.126582758e-27
4.747267095e-27
2.96040152e-27
1.696680235e-27
8.69369008e-28
3.810691856e-28
1.32123412e-28
3.075981736e-29
3.172180428e-30
2.245424683e-32
5.902259461e-28
5.896026594e-28
5.878565718e-28
5.856278219e-28
5.826880731e-28
5.78959452e-28
5.74416509e-28
5.690210428e-28
5.627266428e-28
5.554842568e-28
5.47240362e-28
5.379461026e-28
5.275924148e-28
5.160711773e-28
5.033651769e-28
4.894831816e-28
4.743545526e-28
4.579875307e-28
4.403824541e-28
4.215606247e-28
4.01615448e-28
3.805668329e-28
3.584486693e-28
3.354748925e-28
3.118042748e-28
2.875612764e-28
2.629407966e-28
2.382115405e-28
2.13603928e-28
1.893414558e-28
1.657219572e-28
1.430182052e-28
1.214964051e-28
1.014053179e-28
8.296761333e-29
6.637152514e-29
5.175641865e-29
3.917158254e-29
2.864028574e-29
2.011297759e-29
1.345534376e-29
8.486022245e-30
4.973747268e-30
2.654185104e-30
1.250566811e-30
4.953226507e-31
1.511374712e-31
2.958235092e-32
2.33173621e-33
9.337349181e-36
2.187938473e-30
2.18478442e-30
2.17595032e-30
2.164453128e-30
2.149277116e-30
2.130133393e-30
2.106973235e-30
2.079703533e-30
2.048211063e-30
2.012386638e-30
1.972120185e-30
1.927338252e-30
1.878124348e-30
1.824211921e-30
1.76570094e-30
1.702792332e-30
1.635414572e-30
1.563802253e-30
1.488179833e-30
1.408870408e-30
1.326401327e-30
1.241077861e-30
1.153322472e-30
1.06410131e-30
9.741195021e-31
8.839843172e-31
7.945411228e-31
7.06815235e-31
6.216327813e-31
5.397436726e-31
4.621297275e-31
3.895702491e-31
3.227366648e-31
2.622161902e-31
2.08427432e-31
1.616221139e-31
1.218561267e-31
8.890814661e-32
6.24542817e-32
4.197077699e-32
2.674081778e-32
1.596852477e-32
8.797567112e-33
4.371780988e-33
1.894308404e-33
6.779795275e-34
1.820071161e-34
2.992084853e-35
1.798030046e-36
5.833860012e-37
8.565425532e-33
8.550581973e-33
8.5069031e-33
8.448711709e-33
8.371735036e-33
8.275000265e-33
8.158599827e-33
8.022476469e-33
7.86654036e-33
7.690779532e-33
7.495245768e-33
7.280210579e-33
7.046591399e-33
6.794007936e-33
6.523601327e-33
6.236907193e-33
5.93445931e-33
5.617976418e-33
5.289191669e-33
4.950451299e-33
4.604094985e-33
4.25213889e-33
3.897338418e-33
3.543605118e-33
3.193944212e-33
2.850975186e-33
2.518050965e-33
2.198858482e-33
1.896136419e-33
1.612226945e-33
1.349979264e-33
1.111321098e-33
8.976288492e-34
7.097909388e-34
5.480093558e-34
4.118406629e-34
3.001725415e-34
2.111023281e-34
1.424553335e-34
9.160325142e-35
5.558061755e-35
3.14256118e-35
1.62746838e-35
7.531819323e-36
3.00183467e-36
9.711204109e-37
6.034478778e-37
6.034477398e-37
6.034476156e-37
6.034474845e-37
3.519823819e-35
3.512383046e-35
3.490367738e-35
3.460768838e-35
3.421631289e-35
3.372630519e-35
3.313957188e-35
3.245755691e-35
3.168180376e-35
3.081447221e-35
2.985827072e-35
2.881710153e-35
2.769760982e-35
2.650138459e-35
2.523647727e-35
2.391243593e-35
2.253486926e-35
2.111414721e-35
1.966066673e-35
1.818663741e-35
1.670405886e-35
1.522369697e-35
1.375846769e-35
1.232485322e-35
1.093489888e-35
9.598647138e-36
8.328948502e-36
7.138207368e-36
6.034255509e-36
5.023547914e-36
4.113095852e-36
3.306061928e-36
2.60323046e-36
2.003228742e-36
1.502191888e-36
1.094086348e-36
7.70891516e-37
6.242734933e-37
6.242734217e-37
6.2427335e-37
6.242732784e-37
6.242732068e-37
6.242731352e-37
6.242730635e-37
6.242729919e-37
6.242729203e-37
6.242728558e-37
6.242727842e-37
6.242727197e-37
6.242726553e-37
6.458945699e-37
6.458945699e-37
6.458945699e-37
6.458945625e-37
6.458945551e-37
6.458945476e-37
6.458945402e-37
6.458945253e-37
6.458945179e-37
6.45894503e-37
6.458944881e-37
6.458944733e-37
6.45894451e-37
6.458944361e-37
6.458944138e-37
6.458943915e-37
6.458943692e-37
6.458943468e-37
6.458943171e-37
6.458942948e-37
6.45894265e-37
6.458942353e-37
6.458942056e-37
6.458941758e-37
6.458941461e-37
6.458941163e-37
6.458940791e-37
6.458940494e-37
6.458940122e-37
6.45893975e-37
6.458939453e-37
6.458939081e-37
6.458938709e-37
6.458938337e-37
6.458937965e-37
6.458937594e-37
6.458937222e-37
6.45893685e-37
6.458936478e-37
6.458936106e-37
6.458935734e-37
6.458935363e-37
6.458934991e-37
6.458934619e-37
6.458934247e-37
6.458933875e-37
6.458933503e-37
6.458933206e-37
6.458932834e-37
6.458932462e-37
6.683431356e-37
6.683431356e-37
6.683431279e-37
6.683431279e-37
6.683431279e-37
6.683431202e-37
6.683431202e-37
6.683431124e-37
6.683431047e-37
6.68343097e-37
6.683430893e-37
6.683430816e-37
6.683430738e-37
6.683430661e-37
6.683430507e-37
6.683430429e-37
6.683430275e-37
6.683430198e-37
6.683430043e-37
6.683429889e-37
6.683429734e-37
6.68342958e-37
6.683429426e-37
6.683429271e-37
6.683429117e-37
6.683428962e-37
6.683428808e-37
6.683428653e-37
6.683428422e-37
6.683428267e-37
6.683428113e-37
6.683427881e-37
6.683427727e-37
6.683427495e-37
6.683427341e-37
6.683427109e-37
6.683426955e-37
6.683426723e-37
6.683426568e-37
6.683426337e-37
6.683426182e-37
6.683425951e-37
6.683425796e-37
6.683425565e-37
6.68342541e-37
6.683425178e-37
6.683425024e-37
6.68342487e-37
6.683424638e-37
6.683424483e-37
6.916552927e-37
6.916552927e-37
6.916552927e-37
6.916552927e-37
6.916552847e-37
6.916552847e-37
6.916552847e-37
6.916552767e-37
6.916552767e-37
6.916552767e-37
6.916552687e-37
6.916552606e-37
6.916552606e-37
6.916552526e-37
6.916552526e-37
6.916552446e-37
6.916552366e-37
6.916552286e-37
6.916552205e-37
6.916552205e-37
6.916552125e-37
6.916552045e-37
6.916551965e-37
6.916551885e-37
6.916551804e-37
6.916551724e-37
6.916551564e-37
6.916551484e-37
6.916551403e-37
6.916551323e-37
6.916551243e-37
6.916551163e-37
6.916551002e-37
6.916550922e-37
6.916550842e-37
6.916550762e-37
6.916550601e-37
6.916550521e-37
6.916550441e-37
6.916550361e-37
6.9165502e-37
6.91655012e-37
6.91655004e-37
6.91654996e-37
6.9165498e-37
6.916549719e-37
6.916549639e-37
6.916549559e-37
6.916549479e-37
6.916549399e-37
7.158671481e-37
7.158671481e-37
7.158671481e-37
7.158671397e-37
7.158671397e-37
7.158671397e-37
7.158671397e-37
7.158671397e-37
7.158671397e-37
7.158671314e-37
7.158671314e-37
7.158671314e-37
7.158671314e-37
7.158671231e-37
7.158671231e-37
7.158671231e-37
7.158671148e-37
7.158671148e-37
7.158671064e-37
7.158671064e-37
7.158670981e-37
7.158670981e-37
7.158670981e-37
7.158670898e-37
7.158670814e-37
7.158670814e-37
7.158670731e-37
7.158670731e-37
7.158670648e-37
7.158670648e-37
7.158670564e-37
7.158670481e-37
7.158670481e-37
7.158670398e-37
7.158670398e-37
7.158670315e-37
7.158670231e-37
7.158670231e-37
7.158670148e-37
7.158670148e-37
7.158670065e-37
7.158669981e-37
7.158669981e-37
7.158669898e-37
7.158669815e-37
7.158669815e-37
7.158669732e-37
7.158669648e-37
7.158669648e-37
7.158669565e-37
7.410165192e-37
7.410165192e-37
7.410165192e-37
7.410165192e-37
7.410165192e-37
7.410165106e-37
7.410165106e-37
7.410165106e-37
7.410165106e-37
7.410165106e-37
7.410165106e-37
7.410165106e-37
7.410165106e-37
7.410165106e-37
7.410165019e-37
7.410165019e-37
7.410165019e-37
7.410165019e-37
7.410165019e-37
7.410164933e-37
7.410164933e-37
7.410164933e-37
7.410164933e-37
7.410164846e-37
7.410164846e-37
7.410164846e-37
7.410164846e-37
7.41016476e-37
7.41016476e-37
7.41016476e-37
7.41016476e-37
7.410164673e-37
7.410164673e-37
7.410164673e-37
7.410164587e-37
7.410164587e-37
7.410164587e-37
7.4101645e-37
7.4101645e-37
7.4101645e-37
7.4101645e-37
7.410164414e-37
7.410164414e-37
7.410164414e-37
7.410164327e-37
7.410164327e-37
7.410164327e-37
7.410164327e-37
7.410164241e-37
7.410164241e-37
7.67142988e-37
7.67142988e-37
7.67142988e-37
7.67142988e-37
7.67142988e-37
7.67142988e-37
7.67142988e-37
7.67142988e-37
7.67142988e-37
7.67142988e-37
7.67142988e-37
7.67142988e-37
7.67142988e-37
7.67142988e-37
7.67142988e-37
7.67142988e-37
7.67142979e-37
7.67142979e-37
7.67142979e-37
7.67142979e-37
7.67142979e-37
7.67142979e-37
7.67142979e-37
7.67142979e-37
7.67142979e-37
7.6714297e-37
7.6714297e-37
7.6714297e-37
7.6714297e-37
7.6714297e-37
7.6714297e-37
7.6714297e-37
7.67142961e-37
7.67142961e-37
7.67142961e-37
7.67142961e-37
7.67142961e-37
7.67142961e-37
7.67142961e-37
7.671429521e-37
7.671429521e-37
7.671429521e-37
7.671429521e-37
7.671429521e-37
7.671429521e-37
7.671429521e-37
7.671429431e-37
7.671429431e-37
7.671429431e-37
7.671429431e-37
7.942879865e-37
7.942879865e-37
7.942879865e-37
7.942879865e-37
7.942879865e-37
7.942879865e-37
7.942879865e-37
7.942879865e-37
7.942879865e-37
7.942879865e-37
7.942879772e-37
7.942879772e-37
7.942879772e-37
7.942879772e-37
7.942879772e-37
7.942879772e-37
7.942879772e-37
7.942879772e-37
7.942879772e-37
7.942879772e-37
7.942879772e-37
7.942879772e-37
7.942879772e-37
7.942879772e-37
7.942879772e-37
7.942879772e-37
7.942879772e-37
7.942879772e-37
7.942879772e-37
7.942879678e-37
7.942879678e-37
7.942879678e-37
7.942879678e-37
7.942879678e-37
7.942879678e-37
7.942879678e-37
7.942879678e-37
7.942879678e-37
7.942879678e-37
7.942879678e-37
7.942879678e-37
7.942879678e-37
7.942879678e-37
7.942879585e-37
7.942879585e-37
7.942879585e-37
7.942879585e-37
7.942879585e-37
7.942879585e-37
7.942879585e-37
8.224948192e-37
8.224948192e-37
8.224948192e-37
8.224948192e-37
8.224948192e-37
8.224948192e-37
8.224948192e-37
8.224948192e-37
8.224948192e-37
8.224948192e-37
8.224948192e-37
8.224948192e-37
8.224948192e-37
8.224948192e-37
8.224948192e-37
8.224948192e-37
8.224948192e-37
8.224948192e-37
8.224948192e-37
8.224948192e-37
8.224948192e-37
8.224948192e-37
8.224948192e-37
8.224948192e-37
8.224948192e-37
8.224948192e-37
8.224948192e-37
8.224948192e-37
8.224948192e-37
8.224948192e-37
8.224948192e-37
8.224948192e-37
8.224948192e-37
8.224948192e-37
8.224948192e-37
8.224948192e-37
8.224948095e-37
8.224948095e-37
8.224948095e-37
8.224948095e-37
8.224948095e-37
8.224948095e-37
8.224948095e-37
8.224948095e-37
8.224948095e-37
8.224948095e-37
8.224948095e-37
8.224948095e-37
8.224948095e-37
8.224948095e-37
8.518088366e-37
8.518088366e-37
8.518088366e-37
8.518088366e-37
8.518088366e-37
8.518088366e-37
8.518088366e-37
8.518088366e-37
8.518088366e-37
8.518088366e-37
8.518088366e-37
8.518088366e-37
8.518088366e-37
8.518088366e-37
8.518088366e-37
8.518088366e-37
8.518088366e-37
8.518088366e-37
8.518088366e-37
8.518088366e-37
8.518088366e-37
8.518088366e-37
8.518088366e-37
8.518088366e-37
8.518088366e-37
8.518088366e-37
8.518088265e-37
8.518088265e-37
8.518088265e-37
8.518088265e-37
8.518088265e-37
8.518088265e-37
8.518088265e-37
8.518088265e-37
8.518088265e-37
8.518088265e-37
8.518088265e-37
8.518088265e-37
8.518088265e-37
8.518088265e-37
8.518088265e-37
8.518088265e-37
8.518088265e-37
8.518088265e-37
8.518088265e-37
8.518088265e-37
8.518088265e-37
8.518088265e-37
8.518088265e-37
8.518088265e-37
8.822774424e-37
8.822774424e-37
8.822774424e-37
8.822774424e-37
8.822774424e-37
8.822774424e-37
8.822774424e-37
8.822774424e-37
8.822774424e-37
8.822774424e-37
8.822774424e-37
8.822774424e-37
8.822774424e-37
8.822774424e-37
8.822774319e-37
8.822774319e-37
8.822774319e-37
8.822774319e-37
8.822774319e-37
8.822774319e-37
8.822774319e-37
8.822774319e-37
8.822774319e-37
8.822774319e-37
8.822774319e-37
8.822774319e-37
8.822774319e-37
8.822774319e-37
8.822774319e-37
8.822774319e-37
8.822774319e-37
8.822774319e-37
8.822774319e-37
8.822774319e-37
8.822774319e-37
8.822774319e-37
8.822774319e-37
8.822774319e-37
8.822774319e-37
8.822774319e-37
8.822774319e-37
8.822774319e-37
8.822774319e-37
8.822774319e-37
8.822774319e-37
8.822774319e-37
8.822774319e-37
8.822774319e-37
8.822774319e-37
8.822774319e-37
9.13950257e-37
9.13950257e-37
9.13950257e-37
9.13950257e-37
9.13950257e-37
9.13950257e-37
9.13950257e-37
9.13950257e-37
9.13950257e-37
9.13950257e-37
9.13950257e-37
9.13950257e-37
9.13950257e-37
9.13950257e-37
9.13950257e-37
9.13950257e-37
9.13950257e-37
9.13950257e-37
9.13950257e-37
9.13950257e-37
9.13950257e-37
9.13950257e-37
9.139502461e-37
9.139502461e-37
9.139502461e-37
9.139502461e-37
9.139502461e-37
9.139502461e-37
9.139502461e-37
9.139502461e-37
9.139502461e-37
9.139502461e-37
9.139502461e-37
9.139502461e-37
9.139502461e-37
9.139502461e-37
9.139502461e-37
9.139502461e-37
9.139502461e-37
9.139502461e-37
9.139502461e-37
9.139502461e-37
9.139502461e-37
9.139502461e-37
9.139502461e-37
9.139502461e-37
9.139502461e-37
9.139502461e-37
9.139502461e-37
9.139502461e-37
9.468792024e-37
9.468792024e-37
9.468792024e-37
9.468792024e-37
9.468792024e-37
9.468792024e-37
9.468792024e-37
9.468792024e-37
9.468792024e-37
9.468792024e-37
9.468792024e-37
9.468792024e-37
9.468792024e-37
9.468792024e-37
9.468792024e-37
9.468792024e-37
9.468792024e-37
9.468792024e-37
9.468792024e-37
9.468792024e-37
9.468792024e-37
9.468792024e-37
9.468792024e-37
9.468792024e-37
9.468792024e-37
9.468792024e-37
9.468792024e-37
9.468792024e-37
9.468792024e-37
9.468792024e-37
9.468792024e-37
9.468792024e-37
9.468792024e-37
9.468792024e-37
9.468792024e-37
9.468792024e-37
9.468792024e-37
9.468792024e-37
9.468792024e-37
9.468792024e-37
9.468792024e-37
9.468792024e-37
9.468792024e-37
9.468792024e-37
9.468792024e-37
9.468792024e-37
9.468792024e-37
9.468792024e-37
9.468792024e-37
9.468792024e-37
9.811186234e-37
9.811186234e-37
9.811186234e-37
9.811186234e-37
9.811186234e-37
9.811186234e-37
9.811186234e-37
9.811186234e-37
9.811186234e-37
9.811186234e-37
9.811186234e-37
9.811186234e-37
9.811186234e-37
9.811186234e-37
9.811186234e-37
9.811186234e-37
9.811186234e-37
9.811186234e-37
9.811186234e-37
9.811186234e-37
9.811186234e-37
9.811186234e-37
9.811186234e-37
9.811186234e-37
9.811186234e-37
9.811186234e-37
9.811186234e-37
9.811186234e-37
9.811186234e-37
9.811186234e-37
9.811186234e-37
9.811186234e-37
9.811186234e-37
9.811186234e-37
9.811186234e-37
9.811186234e-37
9.811186234e-37
9.811186234e-37
9.811186234e-37
9.811186234e-37
9.811186234e-37
9.811186234e-37
9.811186234e-37
9.811186234e-37
9.811186234e-37
9.811186234e-37
9.811186234e-37
9.811186234e-37
9.811186234e-37
9.811186234e-37
1.016725402e-36
1.016725402e-36
1.016725402e-36
1.016725402e-36
1.016725402e-36
1.016725402e-36
1.016725402e-36
1.016725402e-36
1.016725402e-36
1.016725402e-36
1.016725402e-36
1.016725402e-36
1.016725402e-36
1.016725402e-36
1.016725402e-36
1.016725402e-36
1.016725402e-36
1.016725402e-36
1.016725402e-36
1.016725402e-36
1.016725402e-36
1.016725402e-36
1.016725402e-36
1.016725402e-36
1.016725402e-36
1.016725402e-36
1.016725402e-36
1.016725402e-36
1.016725402e-36
1.016725402e-36
1.016725402e-36
1.016725402e-36
1.016725402e-36
1.016725402e-36
1.016725402e-36
1.016725402e-36
1.016725402e-36
1.016725402e-36
1.016725402e-36
1.016725402e-36
1.016725402e-36
1.016725402e-36
1.016725402e-36
1.016725402e-36
1.016725402e-36
1.016725402e-36
1.016725402e-36
1.016725402e-36
1.016725402e-36
1.016725402e-36
1.053759091e-36
1.053759091e-36
1.053759091e-36
1.053759091e-36
1.053759091e-36
1.053759091e-36
1.053759091e-36
1.053759091e-36
1.053759091e-36
1.053759091e-36
1.053759091e-36
1.053759091e-36
1.053759091e-36
1.053759091e-36
1.053759091e-36
1.053759091e-36
1.053759091e-36
1.053759091e-36
1.053759091e-36
1.053759091e-36
1.053759091e-36
1.053759091e-36
1.053759091e-36
1.053759091e-36
1.053759091e-36
1.053759091e-36
1.053759091e-36
1.053759091e-36
1.053759091e-36
1.053759091e-36
1.053759091e-36
1.053759091e-36
1.053759091e-36
1.053759091e-36
1.053759091e-36
1.053759091e-36
1.053759091e-36
1.053759091e-36
1.053759091e-36
1.053759091e-36
1.053759091e-36
1.053759091e-36
1.053759091e-36
1.053759091e-36
1.053759091e-36
1.053759091e-36
1.053759091e-36
1.053759091e-36
1.053759091e-36
1.053759091e-36
1.092282042e-36
1.092282042e-36
1.092282042e-36
1.092282042e-36
1.092282042e-36
1.092282042e-36
1.092282042e-36
1.092282042e-36
1.092282042e-36
1.092282042e-36
1.092282042e-36
1.092282042e-36
1.092282042e-36
1.092282042e-36
1.092282042e-36
1.092282042e-36
1.092282042e-36
1.092282042e-36
1.092282042e-36
1.092282042e-36
1.092282042e-36
1.092282042e-36
1.092282042e-36
1.092282042e-36
1.092282042e-36
1.092282042e-36
1.092282042e-36
1.092282042e-36
1.092282042e-36
1.092282042e-36
1.092282042e-36
1.092282042e-36
1.092282042e-36
1.092282042e-36
1.092282042e-36
1.092282042e-36
1.092282042e-36
1.092282042e-36
1.092282042e-36
1.092282042e-36
1.092282042e-36
1.092282042e-36
1.092282042e-36
1.092282042e-36
1.092282042e-36
1.092282042e-36
1.092282042e-36
1.092282042e-36
1.092282042e-36
1.092282042e-36
1.132359555e-36
1.132359555e-36
1.132359555e-36
1.132359555e-36
1.132359555e-36
1.132359555e-36
1.132359555e-36
1.132359555e-36
1.132359555e-36
1.132359555e-36
1.132359555e-36
1.132359555e-36
1.132359555e-36
1.132359555e-36
1.132359555e-36
1.132359555e-36
1.132359555e-36
1.132359555e-36
1.132359555e-36
1.132359555e-36
1.132359555e-36
1.132359555e-36
1.132359555e-36
1.132359555e-36
1.132359555e-36
1.132359555e-36
1.132359555e-36
1.132359555e-36
1.132359555e-36
1.132359555e-36
1.132359555e-36
1.132359555e-36
1.132359555e-36
1.132359555e-36
1.132359555e-36
1.132359555e-36
1.132359555e-36
1.132359555e-36
1.132359555e-36
1.132359555e-36
1.132359555e-36
1.132359555e-36
1.132359555e-36
1.132359555e-36
1.132359555e-36
1.132359555e-36
1.132359555e-36
1.132359555e-36
1.132359555e-36
1.132359555e-36
1.174060031e-36
1.174060031e-36
1.174060031e-36
1.174060031e-36
1.174060031e-36
1.174060031e-36
1.174060031e-36
1.174060031e-36
1.174060031e-36
1.174060031e-36
1.174060031e-36
1.174060031e-36
1.174060031e-36
1.174060031e-36
1.174060031e-36
1.174060031e-36
1.174060031e-36
1.174060031e-36
1.174060031e-36
1.174060031e-36
1.174060031e-36
1.174060031e-36
1.174060031e-36
1.174060031e-36
1.174060031e-36
1.174060031e-36
1.174060031e-36
1.174060031e-36
1.174060031e-36
1.174060031e-36
1.174060031e-36
1.174060031e-36
1.174060031e-36
1.174060031e-36
1.174060031e-36
1.174060031e-36
1.174060031e-36
1.174060031e-36
1.174060031e-36
1.174060031e-36
1.174060031e-36
1.174060031e-36
1.174060031e-36
1.174060031e-36
1.174060031e-36
1.174060031e-36
1.174060031e-36
1.174060031e-36
1.174060031e-36
1.174060031e-36
1.217455084e-36
1.217455084e-36
1.217455084e-36
1.217455084e-36
1.217455084e-36
1.217455084e-36
1.217455084e-36
1.217455084e-36
1.217455084e-36
1.217455084e-36
1.217455084e-36
1.217455084e-36
1.217455084e-36
1.217455084e-36
1.217455084e-36
1.217455084e-36
1.217455084e-36
1.217455084e-36
1.217455084e-36
1.217455084e-36
1.217455084e-36
1.217455084e-36
1.217455084e-36
1.217455084e-36
1.217455084e-36
1.217455084e-36
1.217455084e-36
1.217455084e-36
1.217455084e-36
1.217455084e-36
1.217455084e-36
1.217455084e-36
1.217455084e-36
1.217455084e-36
1.217455084e-36
1.217455084e-36
1.217455084e-36
1.217455084e-36
1.217455084e-36
1.217455084e-36
1.217455084e-36
1.217455084e-36
1.217455084e-36
1.217455084e-36
1.217455084e-36
1.217455084e-36
1.217455084e-36
1.217455084e-36
1.217455084e-36
1.217455084e-36
1.262619779e-36
1.262619779e-36
1.262619779e-36
1.262619779e-36
1.262619779e-36
1.262619779e-36
1.262619779e-36
1.262619779e-36
1.262619779e-36
1.262619779e-36
1.262619779e-36
1.262619779e-36
1.262619779e-36
1.262619779e-36
1.262619779e-36
1.262619779e-36
1.262619779e-36
1.262619779e-36
1.262619779e-36
1.262619779e-36
1.262619779e-36
1.262619779e-36
1.262619779e-36
1.262619779e-36
1.262619779e-36
1.262619779e-36
1.262619779e-36
1.262619779e-36
1.262619779e-36
1.262619779e-36
1.262619779e-36
1.262619779e-36
1.262619779e-36
1.262619779e-36
1.262619779e-36
1.262619779e-36
1.262619779e-36
1.262619779e-36
1.262619779e-36
1.262619779e-36
1.262619779e-36
1.262619779e-36
1.262619779e-36
1.262619779e-36
1.262619779e-36
1.262619779e-36
1.262619779e-36
1.262619779e-36
1.262619779e-36
1.262619779e-36
1.309632764e-36
1.309632764e-36
1.309632764e-36
1.309632764e-36
1.309632764e-36
1.309632764e-36
1.309632764e-36
1.309632764e-36
1.309632764e-36
1.309632764e-36
1.309632764e-36
1.309632764e-36
1.309632764e-36
1.309632764e-36
1.309632764e-36
1.309632764e-36
1.309632764e-36
1.309632764e-36
1.309632764e-36
1.309632764e-36
1.309632764e-36
1.309632764e-36
1.309632764e-36
1.309632764e-36
1.309632764e-36
1.309632764e-36
1.309632764e-36
1.309632764e-36
1.309632764e-36
1.309632764e-36
1.309632764e-36
1.309632764e-36
1.309632764e-36
1.309632764e-36
1.309632764e-36
1.309632764e-36
1.309632764e-36
1.309632764e-36
1.309632764e-36
1.309632764e-36
1.309632764e-36
1.309632764e-36
1.309632764e-36
1.309632764e-36
1.309632764e-36
1.309632764e-36
1.309632764e-36
1.309632764e-36
1.309632764e-36
1.309632764e-36
1.358576453e-36
1.358576453e-36
1.358576453e-36
1.358576453e-36
1.358576453e-36
1.358576453e-36
1.358576453e-36
1.358576453e-36
1.358576453e-36
1.358576453e-36
1.358576453e-36
1.358576453e-36
1.358576453e-36
1.358576453e-36
1.358576453e-36
1.358576453e-36
1.358576453e-36
1.358576453e-36
1.358576453e-36
1.358576453e-36
1.358576453e-36
1.358576453e-36
1.358576453e-36
1.358576453e-36
1.358576453e-36
1.358576453e-36
1.358576453e-36
1.358576453e-36
1.358576453e-36
1.358576453e-36
1.358576453e-36
1.358576453e-36
1.358576453e-36
1.358576453e-36
1.358576453e-36
1.358576453e-36
1.358576453e-36
1.358576453e-36
1.358576453e-36
1.358576453e-36
1.358576453e-36
1.358576453e-36
1.358576453e-36
1.358576453e-36
1.358576453e-36
1.358576453e-36
1.358576453e-36
1.358576453e-36
1.358576453e-36
1.358576453e-36
1.409537235e-36
1.409537235e-36
1.409537235e-36
1.409537235e-36
1.409537235e-36
1.409537235e-36
1.409537235e-36
1.409537235e-36
1.409537235e-36
1.409537235e-36
1.409537235e-36
1.409537235e-36
1.409537235e-36
1.409537235e-36
1.409537235e-36
1.409537235e-36
1.409537235e-36
1.409537235e-36
1.409537235e-36
1.409537235e-36
1.409537235e-36
1.409537235e-36
1.409537235e-36
1.409537235e-36
1.409537235e-36
1.409537235e-36
1.409537235e-36
1.409537235e-36
1.409537235e-36
1.409537235e-36
1.409537235e-36
1.409537235e-36
1.409537235e-36
1.409537235e-36
1.409537235e-36
1.409537235e-36
1.409537235e-36
1.409537235e-36
1.409537235e-36
1.409537235e-36
1.409537235e-36
1.409537235e-36
1.409537235e-36
1.409537235e-36
1.409537235e-36
1.409537235e-36
1.409537235e-36
1.409537235e-36
1.409537235e-36
1.409537235e-36
1.462605667e-36
1.462605667e-36
1.462605667e-36
1.462605667e-36
1.462605667e-36
1.462605667e-36
1.462605667e-36
1.462605667e-36
1.462605667e-36
1.462605667e-36
1.462605667e-36
1.462605667e-36
1.462605667e-36
1.462605667e-36
1.462605667e-36
1.462605667e-36
1.462605667e-36
1.462605667e-36
1.462605667e-36
1.462605667e-36
1.462605667e-36
1.462605667e-36
1.462605667e-36
1.462605667e-36
1.462605667e-36
1.462605667e-36
1.462605667e-36
1.462605667e-36
1.462605667e-36
1.462605667e-36
1.462605667e-36
1.462605667e-36
1.462605667e-36
1.462605667e-36
1.462605667e-36
1.462605667e-36