/*--------------------------------*- C++ -*----------------------------------*\
| =========                 |                                                 |
| \\      /  F ield         | OpenFOAM: The Open Source CFD Toolbox           |
|  \\    /   O peration     | Version:  5.x                                   |
|   \\  /    A nd           | Web:      www.OpenFOAM.org                      |
|    \\/     M anipulation  |                                                 |
\*---------------------------------------------------------------------------*/
FoamFile
{
    version     2.0;
    format      ascii;
    class       volScalarField;
    location    "0.004";
    object      T;
}
// * * * * * * * * * * * * * * * * * * * * * * * * * * * * * * * * * * * * * //

dimensions      [0 0 0 1 0 0 0];

internalField   nonuniform List<scalar> 
7950
(
1771.826175
1771.826416
1771.826948
1771.827759
1771.828851
1771.83023
1771.831901
1771.833873
1771.836157
1771.838763
1771.841707
1771.845003
1771.848671
1771.852729
1771.8572
1771.862111
1771.86749
1771.873368
1771.87978
1771.886766
1771.894369
1771.902637
1771.911625
1771.92139
1771.932
1771.943527
1771.956052
1771.969665
1771.984466
1772.000565
1772.018084
1772.037161
1772.057947
1772.08061
1772.105338
1772.132339
1772.161845
1772.194116
1772.229437
1772.268132
1772.310557
1772.357112
1772.408242
1772.464446
1772.52628
1772.594364
1772.669394
1772.752146
1772.843491
1772.944402
1769.359502
1769.359869
1769.360678
1769.361909
1769.363561
1769.365636
1769.368138
1769.371071
1769.37444
1769.378253
1769.382517
1769.38724
1769.39243
1769.398098
1769.404255
1769.410912
1769.418082
1769.425778
1769.434014
1769.442804
1769.452165
1769.462112
1769.472663
1769.483834
1769.495643
1769.508109
1769.521249
1769.535083
1769.549627
1769.5649
1769.580919
1769.5977
1769.615257
1769.633603
1769.652749
1769.672701
1769.693463
1769.715034
1769.737407
1769.760568
1769.784496
1769.809159
1769.834515
1769.860506
1769.887059
1769.914085
1769.941469
1769.969072
1769.996726
1770.024228
1766.711497
1766.711776
1766.712392
1766.713328
1766.714581
1766.716152
1766.71804
1766.720244
1766.722767
1766.725607
1766.728766
1766.732244
1766.736042
1766.74016
1766.744598
1766.749357
1766.754436
1766.759837
1766.765559
1766.771601
1766.777962
1766.784642
1766.791638
1766.798949
1766.806573
1766.814505
1766.822743
1766.831281
1766.840113
1766.849235
1766.858637
1766.868312
1766.878249
1766.888438
1766.898865
1766.909517
1766.920377
1766.931429
1766.942652
1766.954026
1766.965527
1766.97713
1766.988807
1767.00053
1767.012267
1767.023985
1767.035649
1767.047223
1767.05867
1767.069951
1763.92534
1763.925509
1763.92588
1763.926444
1763.927198
1763.928142
1763.929275
1763.930595
1763.932101
1763.933793
1763.935669
1763.937727
1763.939966
1763.942384
1763.944979
1763.947748
1763.950691
1763.953802
1763.957081
1763.960523
1763.964125
1763.967883
1763.971794
1763.975853
1763.980056
1763.984397
1763.988871
1763.993473
1763.998196
1764.003034
1764.007981
1764.013028
1764.018169
1764.023395
1764.028699
1764.03407
1764.0395
1764.04498
1764.050498
1764.056046
1764.061612
1764.067186
1764.072755
1764.07831
1764.083837
1764.089325
1764.094763
1764.100139
1764.105441
1764.110657
1761.055838
1761.05593
1761.056132
1761.056439
1761.056849
1761.057362
1761.057976
1761.058691
1761.059507
1761.060421
1761.061433
1761.062542
1761.063745
1761.065042
1761.066431
1761.06791
1761.069477
1761.07113
1761.072866
1761.074684
1761.07658
1761.078552
1761.080598
1761.082714
1761.084897
1761.087144
1761.089452
1761.091817
1761.094235
1761.096702
1761.099216
1761.101771
1761.104363
1761.106989
1761.109643
1761.112322
1761.11502
1761.117734
1761.120458
1761.123187
1761.125917
1761.128643
1761.13136
1761.134062
1761.136746
1761.139406
1761.142037
1761.144635
1761.147195
1761.149712
1758.140981
1758.141028
1758.141133
1758.141292
1758.141505
1758.14177
1758.142088
1758.142459
1758.142881
1758.143353
1758.143876
1758.144448
1758.145068
1758.145736
1758.146451
1758.14721
1758.148014
1758.148861
1758.14975
1758.150678
1758.151646
1758.152651
1758.153691
1758.154766
1758.155872
1758.15701
1758.158175
1758.159368
1758.160586
1758.161826
1758.163087
1758.164367
1758.165664
1758.166974
1758.168297
1758.169631
1758.170971
1758.172318
1758.173667
1758.175018
1758.176367
1758.177712
1758.179052
1758.180383
1758.181704
1758.183012
1758.184306
1758.185582
1758.186839
1758.188075
1755.202597
1755.202621
1755.202674
1755.202755
1755.202863
1755.202997
1755.203159
1755.203346
1755.20356
1755.203799
1755.204064
1755.204353
1755.204667
1755.205004
1755.205365
1755.205749
1755.206154
1755.206581
1755.207029
1755.207497
1755.207983
1755.208489
1755.209011
1755.209551
1755.210106
1755.210676
1755.21126
1755.211857
1755.212466
1755.213086
1755.213715
1755.214354
1755.215
1755.215653
1755.216312
1755.216975
1755.217642
1755.218311
1755.218981
1755.219651
1755.22032
1755.220987
1755.221651
1755.22231
1755.222964
1755.223612
1755.224252
1755.224883
1755.225505
1755.226116
1752.252281
1752.252294
1752.25232
1752.252361
1752.252415
1752.252482
1752.252563
1752.252657
1752.252764
1752.252884
1752.253017
1752.253162
1752.253319
1752.253489
1752.253669
1752.253861
1752.254064
1752.254278
1752.254502
1752.254736
1752.25498
1752.255232
1752.255493
1752.255763
1752.25604
1752.256325
1752.256616
1752.256914
1752.257217
1752.257526
1752.25784
1752.258158
1752.25848
1752.258805
1752.259133
1752.259463
1752.259794
1752.260127
1752.26046
1752.260793
1752.261126
1752.261457
1752.261786
1752.262114
1752.262438
1752.26276
1752.263077
1752.263391
1752.263699
1752.264003
1749.295977
1749.295983
1749.295997
1749.296017
1749.296044
1749.296078
1749.296118
1749.296165
1749.296218
1749.296278
1749.296345
1749.296417
1749.296496
1749.29658
1749.29667
1749.296766
1749.296867
1749.296974
1749.297086
1749.297202
1749.297324
1749.29745
1749.29758
1749.297714
1749.297852
1749.297994
1749.298139
1749.298288
1749.298439
1749.298593
1749.298749
1749.298907
1749.299067
1749.299229
1749.299392
1749.299556
1749.299721
1749.299887
1749.300052
1749.300218
1749.300383
1749.300548
1749.300712
1749.300875
1749.301036
1749.301196
1749.301354
1749.301509
1749.301663
1749.301813
1746.336682
1746.336685
1746.336691
1746.336701
1746.336715
1746.336732
1746.336752
1746.336775
1746.336802
1746.336832
1746.336865
1746.336901
1746.33694
1746.336982
1746.337027
1746.337075
1746.337125
1746.337178
1746.337234
1746.337292
1746.337352
1746.337415
1746.33748
1746.337547
1746.337616
1746.337686
1746.337759
1746.337832
1746.337908
1746.337984
1746.338062
1746.338141
1746.33822
1746.338301
1746.338382
1746.338464
1746.338546
1746.338628
1746.33871
1746.338793
1746.338875
1746.338957
1746.339038
1746.339119
1746.3392
1746.339279
1746.339358
1746.339435
1746.339511
1746.339586
1743.375895
1743.375897
1743.3759
1743.375905
1743.375912
1743.37592
1743.37593
1743.375942
1743.375955
1743.37597
1743.375986
1743.376004
1743.376024
1743.376045
1743.376067
1743.376091
1743.376116
1743.376142
1743.37617
1743.376199
1743.376229
1743.37626
1743.376292
1743.376326
1743.37636
1743.376395
1743.376431
1743.376468
1743.376505
1743.376543
1743.376582
1743.376621
1743.376661
1743.376701
1743.376741
1743.376782
1743.376823
1743.376864
1743.376904
1743.376945
1743.376986
1743.377027
1743.377068
1743.377108
1743.377148
1743.377187
1743.377226
1743.377265
1743.377303
1743.37734
1740.414366
1740.414367
1740.414369
1740.414371
1740.414374
1740.414379
1740.414384
1740.414389
1740.414396
1740.414403
1740.414411
1740.41442
1740.41443
1740.414441
1740.414452
1740.414463
1740.414476
1740.414489
1740.414503
1740.414517
1740.414532
1740.414548
1740.414564
1740.41458
1740.414597
1740.414615
1740.414633
1740.414651
1740.41467
1740.414689
1740.414708
1740.414727
1740.414747
1740.414767
1740.414787
1740.414807
1740.414828
1740.414848
1740.414868
1740.414889
1740.414909
1740.414929
1740.414949
1740.41497
1740.414989
1740.415009
1740.415028
1740.415048
1740.415066
1740.415085
1737.452468
1737.452468
1737.452469
1737.45247
1737.452472
1737.452474
1737.452477
1737.452479
1737.452483
1737.452486
1737.45249
1737.452495
1737.4525
1737.452505
1737.45251
1737.452516
1737.452523
1737.452529
1737.452536
1737.452543
1737.452551
1737.452558
1737.452566
1737.452574
1737.452583
1737.452592
1737.452601
1737.45261
1737.452619
1737.452628
1737.452638
1737.452648
1737.452657
1737.452667
1737.452677
1737.452687
1737.452697
1737.452708
1737.452718
1737.452728
1737.452738
1737.452748
1737.452758
1737.452768
1737.452778
1737.452788
1737.452797
1737.452807
1737.452816
1737.452825
1734.490386
1734.490386
1734.490386
1734.490387
1734.490388
1734.490389
1734.49039
1734.490392
1734.490393
1734.490395
1734.490397
1734.490399
1734.490402
1734.490404
1734.490407
1734.49041
1734.490413
1734.490416
1734.49042
1734.490423
1734.490427
1734.490431
1734.490435
1734.490439
1734.490443
1734.490447
1734.490452
1734.490456
1734.490461
1734.490466
1734.49047
1734.490475
1734.49048
1734.490485
1734.49049
1734.490495
1734.4905
1734.490505
1734.49051
1734.490515
1734.49052
1734.490525
1734.49053
1734.490535
1734.49054
1734.490545
1734.49055
1734.490554
1734.490559
1734.490564
1731.528212
1731.528212
1731.528213
1731.528213
1731.528213
1731.528214
1731.528214
1731.528215
1731.528216
1731.528217
1731.528218
1731.528219
1731.52822
1731.528221
1731.528223
1731.528224
1731.528226
1731.528227
1731.528229
1731.528231
1731.528233
1731.528235
1731.528237
1731.528239
1731.528241
1731.528243
1731.528245
1731.528247
1731.52825
1731.528252
1731.528254
1731.528257
1731.528259
1731.528262
1731.528264
1731.528267
1731.528269
1731.528272
1731.528274
1731.528277
1731.528279
1731.528282
1731.528284
1731.528287
1731.528289
1731.528292
1731.528294
1731.528296
1731.528299
1731.528301
1728.565993
1728.565993
1728.565993
1728.565993
1728.565994
1728.565994
1728.565994
1728.565995
1728.565995
1728.565995
1728.565996
1728.565997
1728.565997
1728.565998
1728.565998
1728.565999
1728.566
1728.566001
1728.566002
1728.566002
1728.566003
1728.566004
1728.566005
1728.566006
1728.566007
1728.566008
1728.56601
1728.566011
1728.566012
1728.566013
1728.566014
1728.566015
1728.566017
1728.566018
1728.566019
1728.56602
1728.566022
1728.566023
1728.566024
1728.566025
1728.566027
1728.566028
1728.566029
1728.56603
1728.566032
1728.566033
1728.566034
1728.566035
1728.566036
1728.566037
1725.603751
1725.603751
1725.603751
1725.603752
1725.603752
1725.603752
1725.603752
1725.603752
1725.603752
1725.603753
1725.603753
1725.603753
1725.603753
1725.603754
1725.603754
1725.603754
1725.603755
1725.603755
1725.603756
1725.603756
1725.603757
1725.603757
1725.603757
1725.603758
1725.603759
1725.603759
1725.60376
1725.60376
1725.603761
1725.603761
1725.603762
1725.603763
1725.603763
1725.603764
1725.603764
1725.603765
1725.603766
1725.603766
1725.603767
1725.603767
1725.603768
1725.603769
1725.603769
1725.60377
1725.603771
1725.603771
1725.603772
1725.603773
1725.603773
1725.603774
1722.641498
1722.641498
1722.641498
1722.641498
1722.641498
1722.641499
1722.641499
1722.641499
1722.641499
1722.641499
1722.641499
1722.641499
1722.641499
1722.641499
1722.6415
1722.6415
1722.6415
1722.6415
1722.6415
1722.641501
1722.641501
1722.641501
1722.641501
1722.641502
1722.641502
1722.641502
1722.641502
1722.641503
1722.641503
1722.641503
1722.641503
1722.641504
1722.641504
1722.641504
1722.641505
1722.641505
1722.641505
1722.641506
1722.641506
1722.641506
1722.641506
1722.641507
1722.641507
1722.641507
1722.641508
1722.641508
1722.641508
1722.641508
1722.641509
1722.641509
1719.67924
1719.67924
1719.67924
1719.67924
1719.67924
1719.67924
1719.67924
1719.67924
1719.67924
1719.67924
1719.67924
1719.67924
1719.67924
1719.67924
1719.67924
1719.67924
1719.679241
1719.679241
1719.679241
1719.679241
1719.679241
1719.679241
1719.679241
1719.679241
1719.679241
1719.679242
1719.679242
1719.679242
1719.679242
1719.679242
1719.679242
1719.679242
1719.679243
1719.679243
1719.679243
1719.679243
1719.679243
1719.679243
1719.679243
1719.679244
1719.679244
1719.679244
1719.679244
1719.679244
1719.679244
1719.679244
1719.679245
1719.679245
1719.679245
1719.679245
1716.716978
1716.716978
1716.716978
1716.716978
1716.716978
1716.716978
1716.716978
1716.716978
1716.716978
1716.716978
1716.716979
1716.716979
1716.716979
1716.716979
1716.716979
1716.716979
1716.716979
1716.716979
1716.716979
1716.716979
1716.716979
1716.716979
1716.716979
1716.716979
1716.716979
1716.716979
1716.716979
1716.716979
1716.716979
1716.71698
1716.71698
1716.71698
1716.71698
1716.71698
1716.71698
1716.71698
1716.71698
1716.71698
1716.71698
1716.71698
1716.71698
1716.71698
1716.71698
1716.716981
1716.716981
1716.716981
1716.716981
1716.716981
1716.716981
1716.716981
1713.754716
1713.754716
1713.754716
1713.754716
1713.754716
1713.754716
1713.754716
1713.754716
1713.754716
1713.754716
1713.754716
1713.754716
1713.754716
1713.754716
1713.754716
1713.754716
1713.754716
1713.754716
1713.754716
1713.754716
1713.754716
1713.754716
1713.754716
1713.754716
1713.754716
1713.754716
1713.754716
1713.754716
1713.754716
1713.754716
1713.754716
1713.754716
1713.754716
1713.754716
1713.754716
1713.754716
1713.754717
1713.754717
1713.754717
1713.754717
1713.754717
1713.754717
1713.754717
1713.754717
1713.754717
1713.754717
1713.754717
1713.754717
1713.754717
1713.754717
1710.792452
1710.792452
1710.792452
1710.792452
1710.792452
1710.792452
1710.792452
1710.792452
1710.792452
1710.792452
1710.792452
1710.792452
1710.792452
1710.792452
1710.792452
1710.792452
1710.792452
1710.792452
1710.792452
1710.792452
1710.792452
1710.792452
1710.792452
1710.792452
1710.792452
1710.792452
1710.792453
1710.792453
1710.792453
1710.792453
1710.792453
1710.792453
1710.792453
1710.792453
1710.792453
1710.792453
1710.792453
1710.792453
1710.792453
1710.792453
1710.792453
1710.792453
1710.792453
1710.792453
1710.792453
1710.792453
1710.792453
1710.792453
1710.792453
1710.792453
1707.830188
1707.830188
1707.830188
1707.830188
1707.830188
1707.830188
1707.830188
1707.830188
1707.830188
1707.830188
1707.830188
1707.830188
1707.830188
1707.830188
1707.830189
1707.830189
1707.830189
1707.830189
1707.830189
1707.830189
1707.830189
1707.830189
1707.830189
1707.830189
1707.830189
1707.830189
1707.830189
1707.830189
1707.830189
1707.830189
1707.830189
1707.830189
1707.830189
1707.830189
1707.830189
1707.830189
1707.830189
1707.830189
1707.830189
1707.830189
1707.830189
1707.830189
1707.830189
1707.830189
1707.830189
1707.830189
1707.830189
1707.830189
1707.830189
1707.830189
1704.867924
1704.867924
1704.867924
1704.867924
1704.867924
1704.867924
1704.867924
1704.867924
1704.867924
1704.867924
1704.867924
1704.867924
1704.867924
1704.867924
1704.867924
1704.867924
1704.867924
1704.867924
1704.867924
1704.867924
1704.867924
1704.867924
1704.867925
1704.867925
1704.867925
1704.867925
1704.867925
1704.867925
1704.867925
1704.867925
1704.867925
1704.867925
1704.867925
1704.867925
1704.867925
1704.867925
1704.867925
1704.867925
1704.867925
1704.867925
1704.867925
1704.867925
1704.867925
1704.867925
1704.867925
1704.867925
1704.867925
1704.867925
1704.867925
1704.867925
1701.90566
1701.90566
1701.90566
1701.90566
1701.90566
1701.90566
1701.90566
1701.90566
1701.90566
1701.90566
1701.90566
1701.90566
1701.90566
1701.90566
1701.90566
1701.90566
1701.90566
1701.90566
1701.90566
1701.90566
1701.90566
1701.90566
1701.90566
1701.90566
1701.90566
1701.90566
1701.90566
1701.90566
1701.90566
1701.90566
1701.90566
1701.90566
1701.90566
1701.90566
1701.90566
1701.90566
1701.90566
1701.90566
1701.90566
1701.90566
1701.90566
1701.90566
1701.90566
1701.90566
1701.90566
1701.90566
1701.90566
1701.90566
1701.90566
1701.90566
1698.943396
1698.943396
1698.943396
1698.943396
1698.943396
1698.943396
1698.943396
1698.943396
1698.943396
1698.943396
1698.943396
1698.943396
1698.943396
1698.943396
1698.943396
1698.943396
1698.943396
1698.943396
1698.943396
1698.943396
1698.943396
1698.943396
1698.943396
1698.943396
1698.943396
1698.943396
1698.943396
1698.943396
1698.943396
1698.943396
1698.943396
1698.943396
1698.943396
1698.943396
1698.943396
1698.943396
1698.943396
1698.943396
1698.943396
1698.943396
1698.943396
1698.943396
1698.943396
1698.943396
1698.943396
1698.943396
1698.943396
1698.943396
1698.943396
1698.943396
1695.981132
1695.981132
1695.981132
1695.981132
1695.981132
1695.981132
1695.981132
1695.981132
1695.981132
1695.981132
1695.981132
1695.981132
1695.981132
1695.981132
1695.981132
1695.981132
1695.981132
1695.981132
1695.981132
1695.981132
1695.981132
1695.981132
1695.981132
1695.981132
1695.981132
1695.981132
1695.981132
1695.981132
1695.981132
1695.981132
1695.981132
1695.981132
1695.981132
1695.981132
1695.981132
1695.981132
1695.981132
1695.981132
1695.981132
1695.981132
1695.981132
1695.981132
1695.981132
1695.981132
1695.981132
1695.981132
1695.981132
1695.981132
1695.981132
1695.981132
1693.018868
1693.018868
1693.018868
1693.018868
1693.018868
1693.018868
1693.018868
1693.018868
1693.018868
1693.018868
1693.018868
1693.018868
1693.018868
1693.018868
1693.018868
1693.018868
1693.018868
1693.018868
1693.018868
1693.018868
1693.018868
1693.018868
1693.018868
1693.018868
1693.018868
1693.018868
1693.018868
1693.018868
1693.018868
1693.018868
1693.018868
1693.018868
1693.018868
1693.018868
1693.018868
1693.018868
1693.018868
1693.018868
1693.018868
1693.018868
1693.018868
1693.018868
1693.018868
1693.018868
1693.018868
1693.018868
1693.018868
1693.018868
1693.018868
1693.018868
1690.056604
1690.056604
1690.056604
1690.056604
1690.056604
1690.056604
1690.056604
1690.056604
1690.056604
1690.056604
1690.056604
1690.056604
1690.056604
1690.056604
1690.056604
1690.056604
1690.056604
1690.056604
1690.056604
1690.056604
1690.056604
1690.056604
1690.056604
1690.056604
1690.056604
1690.056604
1690.056604
1690.056604
1690.056604
1690.056604
1690.056604
1690.056604
1690.056604
1690.056604
1690.056604
1690.056604
1690.056604
1690.056604
1690.056604
1690.056604
1690.056604
1690.056604
1690.056604
1690.056604
1690.056604
1690.056604
1690.056604
1690.056604
1690.056604
1690.056604
1687.09434
1687.09434
1687.09434
1687.09434
1687.09434
1687.09434
1687.09434
1687.09434
1687.09434
1687.09434
1687.09434
1687.09434
1687.09434
1687.09434
1687.09434
1687.09434
1687.09434
1687.09434
1687.09434
1687.09434
1687.09434
1687.09434
1687.09434
1687.09434
1687.09434
1687.09434
1687.09434
1687.09434
1687.09434
1687.09434
1687.09434
1687.09434
1687.09434
1687.09434
1687.09434
1687.09434
1687.09434
1687.09434
1687.09434
1687.09434
1687.09434
1687.09434
1687.09434
1687.09434
1687.09434
1687.09434
1687.09434
1687.09434
1687.09434
1687.09434
1684.132075
1684.132075
1684.132075
1684.132075
1684.132075
1684.132075
1684.132075
1684.132075
1684.132075
1684.132075
1684.132075
1684.132075
1684.132075
1684.132075
1684.132075
1684.132075
1684.132075
1684.132075
1684.132075
1684.132075
1684.132075
1684.132075
1684.132075
1684.132075
1684.132075
1684.132075
1684.132075
1684.132075
1684.132075
1684.132075
1684.132075
1684.132075
1684.132075
1684.132075
1684.132075
1684.132075
1684.132075
1684.132075
1684.132075
1684.132075
1684.132075
1684.132075
1684.132075
1684.132075
1684.132075
1684.132075
1684.132075
1684.132075
1684.132075
1684.132075
1681.169811
1681.169811
1681.169811
1681.169811
1681.169811
1681.169811
1681.169811
1681.169811
1681.169811
1681.169811
1681.169811
1681.169811
1681.169811
1681.169811
1681.169811
1681.169811
1681.169811
1681.169811
1681.169811
1681.169811
1681.169811
1681.169811
1681.169811
1681.169811
1681.169811
1681.169811
1681.169811
1681.169811
1681.169811
1681.169811
1681.169811
1681.169811
1681.169811
1681.169811
1681.169811
1681.169811
1681.169811
1681.169811
1681.169811
1681.169811
1681.169811
1681.169811
1681.169811
1681.169811
1681.169811
1681.169811
1681.169811
1681.169811
1681.169811
1681.169811
1678.207547
1678.207547
1678.207547
1678.207547
1678.207547
1678.207547
1678.207547
1678.207547
1678.207547
1678.207547
1678.207547
1678.207547
1678.207547
1678.207547
1678.207547
1678.207547
1678.207547
1678.207547
1678.207547
1678.207547
1678.207547
1678.207547
1678.207547
1678.207547
1678.207547
1678.207547
1678.207547
1678.207547
1678.207547
1678.207547
1678.207547
1678.207547
1678.207547
1678.207547
1678.207547
1678.207547
1678.207547
1678.207547
1678.207547
1678.207547
1678.207547
1678.207547
1678.207547
1678.207547
1678.207547
1678.207547
1678.207547
1678.207547
1678.207547
1678.207547
1675.245283
1675.245283
1675.245283
1675.245283
1675.245283
1675.245283
1675.245283
1675.245283
1675.245283
1675.245283
1675.245283
1675.245283
1675.245283
1675.245283
1675.245283
1675.245283
1675.245283
1675.245283
1675.245283
1675.245283
1675.245283
1675.245283
1675.245283
1675.245283
1675.245283
1675.245283
1675.245283
1675.245283
1675.245283
1675.245283
1675.245283
1675.245283
1675.245283
1675.245283
1675.245283
1675.245283
1675.245283
1675.245283
1675.245283
1675.245283
1675.245283
1675.245283
1675.245283
1675.245283
1675.245283
1675.245283
1675.245283
1675.245283
1675.245283
1675.245283
1672.283019
1672.283019
1672.283019
1672.283019
1672.283019
1672.283019
1672.283019
1672.283019
1672.283019
1672.283019
1672.283019
1672.283019
1672.283019
1672.283019
1672.283019
1672.283019
1672.283019
1672.283019
1672.283019
1672.283019
1672.283019
1672.283019
1672.283019
1672.283019
1672.283019
1672.283019
1672.283019
1672.283019
1672.283019
1672.283019
1672.283019
1672.283019
1672.283019
1672.283019
1672.283019
1672.283019
1672.283019
1672.283019
1672.283019
1672.283019
1672.283019
1672.283019
1672.283019
1672.283019
1672.283019
1672.283019
1672.283019
1672.283019
1672.283019
1672.283019
1669.320755
1669.320755
1669.320755
1669.320755
1669.320755
1669.320755
1669.320755
1669.320755
1669.320755
1669.320755
1669.320755
1669.320755
1669.320755
1669.320755
1669.320755
1669.320755
1669.320755
1669.320755
1669.320755
1669.320755
1669.320755
1669.320755
1669.320755
1669.320755
1669.320755
1669.320755
1669.320755
1669.320755
1669.320755
1669.320755
1669.320755
1669.320755
1669.320755
1669.320755
1669.320755
1669.320755
1669.320755
1669.320755
1669.320755
1669.320755
1669.320755
1669.320755
1669.320755
1669.320755
1669.320755
1669.320755
1669.320755
1669.320755
1669.320755
1669.320755
1666.358491
1666.358491
1666.358491
1666.358491
1666.358491
1666.358491
1666.358491
1666.358491
1666.358491
1666.358491
1666.358491
1666.358491
1666.358491
1666.358491
1666.358491
1666.358491
1666.358491
1666.358491
1666.358491
1666.358491
1666.358491
1666.358491
1666.358491
1666.358491
1666.358491
1666.358491
1666.358491
1666.358491
1666.358491
1666.358491
1666.358491
1666.358491
1666.358491
1666.358491
1666.358491
1666.358491
1666.358491
1666.358491
1666.358491
1666.358491
1666.358491
1666.358491
1666.358491
1666.358491
1666.358491
1666.358491
1666.358491
1666.358491
1666.358491
1666.358491
1663.396226
1663.396226
1663.396226
1663.396226
1663.396226
1663.396226
1663.396226
1663.396226
1663.396226
1663.396226
1663.396226
1663.396226
1663.396226
1663.396226
1663.396226
1663.396226
1663.396226
1663.396226
1663.396226
1663.396226
1663.396226
1663.396226
1663.396226
1663.396226
1663.396226
1663.396226
1663.396226
1663.396226
1663.396226
1663.396226
1663.396226
1663.396226
1663.396226
1663.396226
1663.396226
1663.396226
1663.396226
1663.396226
1663.396226
1663.396226
1663.396226
1663.396226
1663.396226
1663.396226
1663.396226
1663.396226
1663.396226
1663.396226
1663.396226
1663.396226
1660.433962
1660.433962
1660.433962
1660.433962
1660.433962
1660.433962
1660.433962
1660.433962
1660.433962
1660.433962
1660.433962
1660.433962
1660.433962
1660.433962
1660.433962
1660.433962
1660.433962
1660.433962
1660.433962
1660.433962
1660.433962
1660.433962
1660.433962
1660.433962
1660.433962
1660.433962
1660.433962
1660.433962
1660.433962
1660.433962
1660.433962
1660.433962
1660.433962
1660.433962
1660.433962
1660.433962
1660.433962
1660.433962
1660.433962
1660.433962
1660.433962
1660.433962
1660.433962
1660.433962
1660.433962
1660.433962
1660.433962
1660.433962
1660.433962
1660.433962
1657.471698
1657.471698
1657.471698
1657.471698
1657.471698
1657.471698
1657.471698
1657.471698
1657.471698
1657.471698
1657.471698
1657.471698
1657.471698
1657.471698
1657.471698
1657.471698
1657.471698
1657.471698
1657.471698
1657.471698
1657.471698
1657.471698
1657.471698
1657.471698
1657.471698
1657.471698
1657.471698
1657.471698
1657.471698
1657.471698
1657.471698
1657.471698
1657.471698
1657.471698
1657.471698
1657.471698
1657.471698
1657.471698
1657.471698
1657.471698
1657.471698
1657.471698
1657.471698
1657.471698
1657.471698
1657.471698
1657.471698
1657.471698
1657.471698
1657.471698
1654.509434
1654.509434
1654.509434
1654.509434
1654.509434
1654.509434
1654.509434
1654.509434
1654.509434
1654.509434
1654.509434
1654.509434
1654.509434
1654.509434
1654.509434
1654.509434
1654.509434
1654.509434
1654.509434
1654.509434
1654.509434
1654.509434
1654.509434
1654.509434
1654.509434
1654.509434
1654.509434
1654.509434
1654.509434
1654.509434
1654.509434
1654.509434
1654.509434
1654.509434
1654.509434
1654.509434
1654.509434
1654.509434
1654.509434
1654.509434
1654.509434
1654.509434
1654.509434
1654.509434
1654.509434
1654.509434
1654.509434
1654.509434
1654.509434
1654.509434
1651.54717
1651.54717
1651.54717
1651.54717
1651.54717
1651.54717
1651.54717
1651.54717
1651.54717
1651.54717
1651.54717
1651.54717
1651.54717
1651.54717
1651.54717
1651.54717
1651.54717
1651.54717
1651.54717
1651.54717
1651.54717
1651.54717
1651.54717
1651.54717
1651.54717
1651.54717
1651.54717
1651.54717
1651.54717
1651.54717
1651.54717
1651.54717
1651.54717
1651.54717
1651.54717
1651.54717
1651.54717
1651.54717
1651.54717
1651.54717
1651.54717
1651.54717
1651.54717
1651.54717
1651.54717
1651.54717
1651.54717
1651.54717
1651.54717
1651.54717
1648.584906
1648.584906
1648.584906
1648.584906
1648.584906
1648.584906
1648.584906
1648.584906
1648.584906
1648.584906
1648.584906
1648.584906
1648.584906
1648.584906
1648.584906
1648.584906
1648.584906
1648.584906
1648.584906
1648.584906
1648.584906
1648.584906
1648.584906
1648.584906
1648.584906
1648.584906
1648.584906
1648.584906
1648.584906
1648.584906
1648.584906
1648.584906
1648.584906
1648.584906
1648.584906
1648.584906
1648.584906
1648.584906
1648.584906
1648.584906
1648.584906
1648.584906
1648.584906
1648.584906
1648.584906
1648.584906
1648.584906
1648.584906
1648.584906
1648.584906
1645.622642
1645.622642
1645.622642
1645.622642
1645.622642
1645.622642
1645.622642
1645.622642
1645.622642
1645.622642
1645.622642
1645.622642
1645.622642
1645.622642
1645.622642
1645.622642
1645.622642
1645.622642
1645.622642
1645.622642
1645.622642
1645.622642
1645.622642
1645.622642
1645.622642
1645.622642
1645.622642
1645.622642
1645.622642
1645.622642
1645.622642
1645.622642
1645.622642
1645.622642
1645.622642
1645.622642
1645.622642
1645.622642
1645.622642
1645.622642
1645.622642
1645.622642
1645.622642
1645.622642
1645.622642
1645.622642
1645.622642
1645.622642
1645.622642
1645.622642
1642.660377
1642.660377
1642.660377
1642.660377
1642.660377
1642.660377
1642.660377
1642.660377
1642.660377
1642.660377
1642.660377
1642.660377
1642.660377
1642.660377
1642.660377
1642.660377
1642.660377
1642.660377
1642.660377
1642.660377
1642.660377
1642.660377
1642.660377
1642.660377
1642.660377
1642.660377
1642.660377
1642.660377
1642.660377
1642.660377
1642.660377
1642.660377
1642.660377
1642.660377
1642.660377
1642.660377
1642.660377
1642.660377
1642.660377
1642.660377
1642.660377
1642.660377
1642.660377
1642.660377
1642.660377
1642.660377
1642.660377
1642.660377
1642.660377
1642.660377
1639.698113
1639.698113
1639.698113
1639.698113
1639.698113
1639.698113
1639.698113
1639.698113
1639.698113
1639.698113
1639.698113
1639.698113
1639.698113
1639.698113
1639.698113
1639.698113
1639.698113
1639.698113
1639.698113
1639.698113
1639.698113
1639.698113
1639.698113
1639.698113
1639.698113
1639.698113
1639.698113
1639.698113
1639.698113
1639.698113
1639.698113
1639.698113
1639.698113
1639.698113
1639.698113
1639.698113
1639.698113
1639.698113
1639.698113
1639.698113
1639.698113
1639.698113
1639.698113
1639.698113
1639.698113
1639.698113
1639.698113
1639.698113
1639.698113
1639.698113
1636.735849
1636.735849
1636.735849
1636.735849
1636.735849
1636.735849
1636.735849
1636.735849
1636.735849
1636.735849
1636.735849
1636.735849
1636.735849
1636.735849
1636.735849
1636.735849
1636.735849
1636.735849
1636.735849
1636.735849
1636.735849
1636.735849
1636.735849
1636.735849
1636.735849
1636.735849
1636.735849
1636.735849
1636.735849
1636.735849
1636.735849
1636.735849
1636.735849
1636.735849
1636.735849
1636.735849
1636.735849
1636.735849
1636.735849
1636.735849
1636.735849
1636.735849
1636.735849
1636.735849
1636.735849
1636.735849
1636.735849
1636.735849
1636.735849
1636.735849
1633.773585
1633.773585
1633.773585
1633.773585
1633.773585
1633.773585
1633.773585
1633.773585
1633.773585
1633.773585
1633.773585
1633.773585
1633.773585
1633.773585
1633.773585
1633.773585
1633.773585
1633.773585
1633.773585
1633.773585
1633.773585
1633.773585
1633.773585
1633.773585
1633.773585
1633.773585
1633.773585
1633.773585
1633.773585
1633.773585
1633.773585
1633.773585
1633.773585
1633.773585
1633.773585
1633.773585
1633.773585
1633.773585
1633.773585
1633.773585
1633.773585
1633.773585
1633.773585
1633.773585
1633.773585
1633.773585
1633.773585
1633.773585
1633.773585
1633.773585
1630.811321
1630.811321
1630.811321
1630.811321
1630.811321
1630.811321
1630.811321
1630.811321
1630.811321
1630.811321
1630.811321
1630.811321
1630.811321
1630.811321
1630.811321
1630.811321
1630.811321
1630.811321
1630.811321
1630.811321
1630.811321
1630.811321
1630.811321
1630.811321
1630.811321
1630.811321
1630.811321
1630.811321
1630.811321
1630.811321
1630.811321
1630.811321
1630.811321
1630.811321
1630.811321
1630.811321
1630.811321
1630.811321
1630.811321
1630.811321
1630.811321
1630.811321
1630.811321
1630.811321
1630.811321
1630.811321
1630.811321
1630.811321
1630.811321
1630.811321
1627.849057
1627.849057
1627.849057