/*--------------------------------*- C++ -*----------------------------------*\
| =========                 |                                                 |
| \\      /  F ield         | OpenFOAM: The Open Source CFD Toolbox           |
|  \\    /   O peration     | Version:  5.x                                   |
|   \\  /    A nd           | Web:      www.OpenFOAM.org                      |
|    \\/     M anipulation  |                                                 |
\*---------------------------------------------------------------------------*/
FoamFile
{
    version     2.0;
    format      ascii;
    class       volScalarField;
    location    "0.004";
    object      theta;
}
// * * * * * * * * * * * * * * * * * * * * * * * * * * * * * * * * * * * * * //

dimensions      [0 0 0 0 0 0 0];

internalField   nonuniform List<scalar> 
7950
(
7.594642004
7.594640344
7.594636681
7.594631096
7.594623577
7.594614081
7.594602574
7.594588995
7.594573267
7.594555322
7.59453505
7.594512353
7.594487096
7.594459152
7.594428365
7.594394549
7.59435751
7.594317035
7.594272884
7.594224781
7.594172429
7.594115499
7.594053612
7.593986376
7.593913322
7.593833956
7.593747719
7.593653993
7.593552088
7.593441249
7.593320636
7.593189299
7.5930462
7.592890182
7.592719953
7.592534082
7.592330973
7.592108839
7.59186572
7.591599388
7.591307396
7.590986996
7.590635129
7.590248367
7.589822892
7.589354444
7.588838247
7.588268974
7.58764065
7.5869466
7.611651524
7.61164899
7.611643404
7.611634903
7.611623496
7.611609167
7.61159189
7.611571637
7.611548373
7.611522044
7.6114926
7.611459987
7.611424149
7.611385011
7.611342497
7.611296531
7.611247023
7.611193883
7.611137015
7.611076322
7.611011688
7.610943008
7.610870158
7.610793029
7.610711496
7.610625428
7.610534707
7.610439197
7.610338786
7.610233345
7.610122754
7.610006906
7.609885703
7.609759055
7.609626888
7.609489159
7.609345843
7.609196946
7.609042516
7.608882652
7.608717498
7.608547276
7.608372275
7.608192897
7.608009646
7.607823136
7.607634162
7.607443682
7.607252856
7.607063084
7.629964325
7.629962393
7.629958126
7.629951643
7.629942965
7.629932084
7.629919008
7.629903743
7.629886269
7.629866599
7.62984472
7.629820632
7.629794327
7.629765807
7.62973507
7.62970211
7.629666934
7.629629528
7.6295899
7.629548055
7.629504002
7.629457739
7.629409289
7.629358657
7.629305858
7.629250927
7.629193877
7.62913475
7.629073587
7.629010417
7.628945309
7.628878311
7.628809499
7.628738943
7.62866674
7.62859298
7.62851778
7.628441252
7.62836354
7.628284785
7.62820515
7.628124811
7.62804396
7.627962792
7.627881528
7.627800396
7.62771964
7.627639508
7.627560256
7.627482154
7.649291903
7.649290729
7.649288151
7.649284232
7.649278994
7.649272435
7.649264563
7.649255392
7.649244928
7.649233172
7.649220138
7.649205839
7.649190283
7.649173483
7.649155454
7.649136215
7.649115768
7.649094153
7.649071372
7.649047458
7.649022432
7.648996323
7.648969151
7.648940951
7.64891175
7.648881591
7.648850508
7.648818536
7.648785723
7.648752112
7.648717744
7.648682681
7.648646965
7.648610659
7.648573811
7.648536498
7.648498775
7.648460706
7.648422372
7.64838383
7.648345164
7.648306442
7.648267755
7.648229166
7.648190771
7.648152648
7.648114872
7.648077527
7.648040696
7.648004463
7.669261573
7.669260932
7.669259524
7.669257384
7.669254526
7.66925095
7.66924667
7.669241686
7.669235998
7.669229627
7.669222573
7.669214842
7.669206457
7.669197416
7.669187734
7.669177424
7.669166502
7.669154979
7.669142879
7.669130206
7.66911699
7.669103244
7.669088983
7.669074234
7.669059017
7.669043355
7.669027267
7.669010782
7.668993928
7.668976732
7.668959209
7.6689414
7.668923333
7.668905029
7.66888653
7.668867857
7.668849052
7.668830135
7.668811148
7.668792127
7.668773098
7.668754098
7.66873516
7.668716327
7.66869762
7.66867908
7.668660742
7.668642634
7.668624791
7.668607248
7.689613621
7.689613292
7.689612558
7.689611446
7.689609956
7.689608103
7.689605879
7.689603284
7.689600333
7.689597032
7.689593374
7.689589374
7.689585037
7.689580366
7.689575365
7.689570057
7.689564434
7.68955851
7.689552293
7.689545803
7.689539033
7.689532004
7.689524731
7.689517213
7.689509478
7.689501519
7.689493371
7.689485028
7.68947651
7.689467838
7.689459019
7.689450067
7.689440996
7.689431835
7.689422582
7.689413253
7.689403882
7.689394462
7.689385027
7.689375579
7.689366145
7.689356739
7.689347367
7.689338059
7.689328821
7.689319673
7.689310624
7.6893017
7.68929291
7.689284266
7.710198356
7.710198188
7.710197816
7.710197247
7.710196489
7.710195549
7.710194412
7.7101931
7.710191599
7.710189921
7.710188062
7.710186034
7.71018383
7.710181466
7.710178933
7.710176238
7.710173396
7.7101704
7.710167256
7.710163972
7.710160562
7.710157011
7.710153348
7.710149559
7.710145664
7.710141664
7.710137566
7.710133377
7.710129104
7.710124753
7.710120339
7.710115856
7.710111322
7.71010674
7.710102116
7.710097464
7.710092783
7.710088089
7.710083388
7.710078686
7.710073992
7.710069311
7.710064652
7.710060028
7.710055439
7.710050892
7.710046401
7.710041973
7.710037608
7.710033321
7.730936139
7.730936048
7.730935865
7.730935576
7.730935196
7.730934724
7.730934154
7.730933492
7.730932739
7.730931894
7.730930957
7.730929936
7.730928831
7.730927634
7.730926367
7.730925015
7.730923586
7.730922079
7.730920502
7.730918854
7.730917136
7.730915362
7.730913524
7.730911623
7.730909673
7.730907666
7.730905617
7.730903519
7.730901386
7.73089921
7.730896999
7.73089476
7.730892493
7.730890205
7.730887896
7.730885572
7.730883242
7.730880897
7.730878553
7.730876208
7.730873863
7.730871533
7.730869217
7.730866907
7.730864626
7.730862359
7.730860127
7.730857916
7.730855748
7.730853607
7.751786177
7.751786135
7.751786036
7.751785894
7.751785704
7.751785463
7.751785181
7.751784849
7.751784474
7.75178405
7.751783577
7.751783069
7.75178251
7.751781917
7.751781281
7.751780603
7.751779889
7.751779134
7.751778342
7.751777523
7.751776661
7.751775771
7.751774852
7.751773906
7.751772931
7.751771928
7.751770903
7.751769851
7.751768784
7.751767696
7.751766594
7.751765478
7.751764347
7.751763203
7.751762051
7.751760893
7.751759727
7.751758554
7.751757389
7.751756216
7.75175505
7.751753884
7.751752726
7.751751574
7.751750437
7.751749307
7.75174819
7.751747095
7.751746007
7.751744948
7.772728009
7.772727988
7.772727945
7.772727874
7.772727775
7.772727654
7.772727513
7.77272735
7.772727158
7.772726946
7.772726712
7.772726456
7.77272618
7.772725882
7.772725563
7.772725223
7.772724869
7.772724493
7.772724096
7.772723685
7.77272326
7.772722813
7.772722352
7.772721877
7.772721388
7.772720892
7.772720374
7.772719857
7.772719318
7.77271878
7.772718227
7.772717667
7.772717107
7.772716532
7.772715958
7.772715377
7.772714796
7.772714214
7.772713633
7.772713045
7.772712464
7.772711882
7.772711308
7.772710734
7.77271016
7.7727096
7.77270904
7.772708494
7.772707955
7.772707424
7.793751548
7.793751534
7.793751513
7.793751477
7.793751428
7.793751371
7.793751299
7.793751214
7.793751122
7.793751015
7.793750901
7.793750773
7.793750631
7.793750482
7.793750325
7.793750154
7.793749977
7.793749792
7.793749592
7.793749386
7.793749173
7.793748952
7.793748725
7.793748483
7.793748241
7.793747992
7.793747736
7.793747473
7.79374721
7.793746939
7.793746662
7.793746385
7.7937461
7.793745816
7.793745531
7.793745239
7.793744948
7.793744656
7.793744372
7.79374408
7.793743788
7.793743497
7.793743205
7.793742921
7.793742636
7.793742359
7.793742081
7.793741804
7.793741534
7.793741271
7.814851914
7.814851907
7.814851892
7.814851878
7.814851857
7.814851821
7.814851785
7.81485175
7.8148517
7.81485165
7.814851593
7.814851528
7.814851457
7.814851379
7.8148513
7.814851222
7.814851129
7.814851036
7.814850936
7.814850836
7.814850729
7.814850615
7.814850501
7.814850387
7.814850265
7.814850137
7.814850008
7.81484988
7.814849744
7.814849609
7.814849473
7.814849337
7.814849195
7.814849052
7.814848909
7.814848766
7.814848617
7.814848474
7.814848331
7.814848181
7.814848039
7.814847896
7.814847753
7.814847603
7.814847468
7.814847325
7.814847189
7.814847046
7.814846918
7.814846782
7.836026854
7.836026854
7.836026847
7.83602684
7.836026825
7.836026811
7.83602679
7.836026775
7.836026747
7.836026725
7.836026696
7.836026661
7.836026625
7.836026589
7.836026553
7.83602651
7.83602646
7.836026417
7.836026367
7.836026317
7.83602626
7.836026209
7.836026152
7.836026095
7.83602603
7.836025966
7.836025902
7.836025837
7.836025773
7.836025708
7.836025637
7.836025565
7.8360255
7.836025429
7.836025357
7.836025286
7.836025214
7.836025135
7.836025064
7.836024992
7.83602492
7.836024849
7.836024777
7.836024706
7.836024634
7.836024562
7.836024498
7.836024426
7.836024362
7.836024297
7.857275435
7.857275435
7.857275435
7.857275428
7.857275421
7.857275413
7.857275406
7.857275392
7.857275385
7.85727537
7.857275356
7.857275341
7.85727532
7.857275306
7.857275284
7.857275262
7.857275241
7.857275219
7.857275191
7.857275169
7.85727514
7.857275112
7.857275083
7.857275054
7.857275025
7.857274997
7.857274961
7.857274932
7.857274896
7.85727486
7.857274831
7.857274795
7.857274759
7.857274724
7.857274688
7.857274652
7.857274616
7.85727458
7.857274544
7.857274508
7.857274472
7.857274436
7.8572744
7.857274364
7.857274328
7.857274292
7.857274256
7.857274228
7.857274192
7.857274156
7.878597378
7.878597378
7.878597371
7.878597371
7.878597371
7.878597364
7.878597364
7.878597356
7.878597349
7.878597342
7.878597335
7.878597328
7.87859732
7.878597313
7.878597299
7.878597291
7.878597277
7.87859727
7.878597255
7.878597241
7.878597227
7.878597212
7.878597198
7.878597183
7.878597169
7.878597154
7.87859714
7.878597126
7.878597104
7.87859709
7.878597075
7.878597054
7.878597039
7.878597017
7.878597003
7.878596981
7.878596967
7.878596945
7.878596931
7.878596909
7.878596895
7.878596873
7.878596859
7.878596837
7.878596823
7.878596801
7.878596787
7.878596772
7.878596751
7.878596736
7.899992724
7.899992724
7.899992724
7.899992724
7.899992717
7.899992717
7.899992717
7.899992709
7.899992709
7.899992709
7.899992702
7.899992695
7.899992695
7.899992688
7.899992688
7.89999268
7.899992673
7.899992666
7.899992659
7.899992659
7.899992651
7.899992644
7.899992637
7.89999263
7.899992623
7.899992615
7.899992601
7.899992594
7.899992586
7.899992579
7.899992572
7.899992565
7.89999255
7.899992543
7.899992536
7.899992528
7.899992514
7.899992507
7.8999925
7.899992492
7.899992478
7.899992471
7.899992463
7.899992456
7.899992442
7.899992434
7.899992427
7.89999242
7.899992413
7.899992405
7.921461692
7.921461692
7.921461692
7.921461685
7.921461685
7.921461685
7.921461685
7.921461685
7.921461685
7.921461678
7.921461678
7.921461678
7.921461678
7.921461671
7.921461671
7.921461671
7.921461663
7.921461663
7.921461656
7.921461656
7.921461649
7.921461649
7.921461649
7.921461641
7.921461634
7.921461634
7.921461627
7.921461627
7.92146162
7.92146162
7.921461612
7.921461605
7.921461605
7.921461598
7.921461598
7.921461591
7.921461583
7.921461583
7.921461576
7.921461576
7.921461569
7.921461562
7.921461562
7.921461554
7.921461547
7.921461547
7.92146154
7.921461533
7.921461533
7.921461525
7.943004577
7.943004577
7.943004577
7.943004577
7.943004577
7.943004569
7.943004569
7.943004569
7.943004569
7.943004569
7.943004569
7.943004569
7.943004569
7.943004569
7.943004562
7.943004562
7.943004562
7.943004562
7.943004562
7.943004555
7.943004555
7.943004555
7.943004555
7.943004548
7.943004548
7.943004548
7.943004548
7.94300454
7.94300454
7.94300454
7.94300454
7.943004533
7.943004533
7.943004533
7.943004526
7.943004526
7.943004526
7.943004518
7.943004518
7.943004518
7.943004518
7.943004511
7.943004511
7.943004511
7.943004504
7.943004504
7.943004504
7.943004504
7.943004497
7.943004497
7.964621715
7.964621715
7.964621715
7.964621715
7.964621715
7.964621715
7.964621715
7.964621715
7.964621715
7.964621715
7.964621715
7.964621715
7.964621715
7.964621715
7.964621715
7.964621715
7.964621708
7.964621708
7.964621708
7.964621708
7.964621708
7.964621708
7.964621708
7.964621708
7.964621708
7.964621701
7.964621701
7.964621701
7.964621701
7.964621701
7.964621701
7.964621701
7.964621694
7.964621694
7.964621694
7.964621694
7.964621694
7.964621694
7.964621694
7.964621686
7.964621686
7.964621686
7.964621686
7.964621686
7.964621686
7.964621686
7.964621679
7.964621679
7.964621679
7.964621679
7.986313486
7.986313486
7.986313486
7.986313486
7.986313486
7.986313486
7.986313486
7.986313486
7.986313486
7.986313486
7.986313479
7.986313479
7.986313479
7.986313479
7.986313479
7.986313479
7.986313479
7.986313479
7.986313479
7.986313479
7.986313479
7.986313479
7.986313479
7.986313479
7.986313479
7.986313479
7.986313479
7.986313479
7.986313479
7.986313471
7.986313471
7.986313471
7.986313471
7.986313471
7.986313471
7.986313471
7.986313471
7.986313471
7.986313471
7.986313471
7.986313471
7.986313471
7.986313471
7.986313464
7.986313464
7.986313464
7.986313464
7.986313464
7.986313464
7.986313464
8.008080246
8.008080246
8.008080246
8.008080246
8.008080246
8.008080246
8.008080246
8.008080246
8.008080246
8.008080246
8.008080246
8.008080246
8.008080246
8.008080246
8.008080246
8.008080246
8.008080246
8.008080246
8.008080246
8.008080246
8.008080246
8.008080246
8.008080246
8.008080246
8.008080246
8.008080246
8.008080246
8.008080246
8.008080246
8.008080246
8.008080246
8.008080246
8.008080246
8.008080246
8.008080246
8.008080246
8.008080238
8.008080238
8.008080238
8.008080238
8.008080238
8.008080238
8.008080238
8.008080238
8.008080238
8.008080238
8.008080238
8.008080238
8.008080238
8.008080238
8.029922399
8.029922399
8.029922399
8.029922399
8.029922399
8.029922399
8.029922399
8.029922399
8.029922399
8.029922399
8.029922399
8.029922399
8.029922399
8.029922399
8.029922399
8.029922399
8.029922399
8.029922399
8.029922399
8.029922399
8.029922399
8.029922399
8.029922399
8.029922399
8.029922399
8.029922399
8.029922392
8.029922392
8.029922392
8.029922392
8.029922392
8.029922392
8.029922392
8.029922392
8.029922392
8.029922392
8.029922392
8.029922392
8.029922392
8.029922392
8.029922392
8.029922392
8.029922392
8.029922392
8.029922392
8.029922392
8.029922392
8.029922392
8.029922392
8.029922392
8.051840324
8.051840324
8.051840324
8.051840324
8.051840324
8.051840324
8.051840324
8.051840324
8.051840324
8.051840324
8.051840324
8.051840324
8.051840324
8.051840324
8.051840317
8.051840317
8.051840317
8.051840317
8.051840317
8.051840317
8.051840317
8.051840317
8.051840317
8.051840317
8.051840317
8.051840317
8.051840317
8.051840317
8.051840317
8.051840317
8.051840317
8.051840317
8.051840317
8.051840317
8.051840317
8.051840317
8.051840317
8.051840317
8.051840317
8.051840317
8.051840317
8.051840317
8.051840317
8.051840317
8.051840317
8.051840317
8.051840317
8.051840317
8.051840317
8.051840317
8.073834415
8.073834415
8.073834415
8.073834415
8.073834415
8.073834415
8.073834415
8.073834415
8.073834415
8.073834415
8.073834415
8.073834415
8.073834415
8.073834415
8.073834415
8.073834415
8.073834415
8.073834415
8.073834415
8.073834415
8.073834415
8.073834415
8.073834408
8.073834408
8.073834408
8.073834408
8.073834408
8.073834408
8.073834408
8.073834408
8.073834408
8.073834408
8.073834408
8.073834408
8.073834408
8.073834408
8.073834408
8.073834408
8.073834408
8.073834408
8.073834408
8.073834408
8.073834408
8.073834408
8.073834408
8.073834408
8.073834408
8.073834408
8.073834408
8.073834408
8.09590507
8.09590507
8.09590507
8.09590507
8.09590507
8.09590507
8.09590507
8.09590507
8.09590507
8.09590507
8.09590507
8.09590507
8.09590507
8.09590507
8.09590507
8.09590507
8.09590507
8.09590507
8.09590507
8.09590507
8.09590507
8.09590507
8.09590507
8.09590507
8.09590507
8.09590507
8.09590507
8.09590507
8.09590507
8.09590507
8.09590507
8.09590507
8.09590507
8.09590507
8.09590507
8.09590507
8.09590507
8.09590507
8.09590507
8.09590507
8.09590507
8.09590507
8.09590507
8.09590507
8.09590507
8.09590507
8.09590507
8.09590507
8.09590507
8.09590507
8.11805269
8.11805269
8.11805269
8.11805269
8.11805269
8.11805269
8.11805269
8.11805269
8.11805269
8.11805269
8.11805269
8.11805269
8.11805269
8.11805269
8.11805269
8.11805269
8.11805269
8.11805269
8.11805269
8.11805269
8.11805269
8.11805269
8.11805269
8.11805269
8.11805269
8.11805269
8.11805269
8.11805269
8.11805269
8.11805269
8.11805269
8.11805269
8.11805269
8.11805269
8.11805269
8.11805269
8.11805269
8.11805269
8.11805269
8.11805269
8.11805269
8.11805269
8.11805269
8.11805269
8.11805269
8.11805269
8.11805269
8.11805269
8.11805269
8.11805269
8.140277677
8.140277677
8.140277677
8.140277677
8.140277677
8.140277677
8.140277677
8.140277677
8.140277677
8.140277677
8.140277677
8.140277677
8.140277677
8.140277677
8.140277677
8.140277677
8.140277677
8.140277677
8.140277677
8.140277677
8.140277677
8.140277677
8.140277677
8.140277677
8.140277677
8.140277677
8.140277677
8.140277677
8.140277677
8.140277677
8.140277677
8.140277677
8.140277677
8.140277677
8.140277677
8.140277677
8.140277677
8.140277677
8.140277677
8.140277677
8.140277677
8.140277677
8.140277677
8.140277677
8.140277677
8.140277677
8.140277677
8.140277677
8.140277677
8.140277677
8.162580438
8.162580438
8.162580438
8.162580438
8.162580438
8.162580438
8.162580438
8.162580438
8.162580438
8.162580438
8.162580438
8.162580438
8.162580438
8.162580438
8.162580438
8.162580438
8.162580438
8.162580438
8.162580438
8.162580438
8.162580438
8.162580438
8.162580438
8.162580438
8.162580438
8.162580438
8.162580438
8.162580438
8.162580438
8.162580438
8.162580438
8.162580438
8.162580438
8.162580438
8.162580438
8.162580438
8.162580438
8.162580438
8.162580438
8.162580438
8.162580438
8.162580438
8.162580438
8.162580438
8.162580438
8.162580438
8.162580438
8.162580438
8.162580438
8.162580438
8.184961381
8.184961381
8.184961381
8.184961381
8.184961381
8.184961381
8.184961381
8.184961381
8.184961381
8.184961381
8.184961381
8.184961381
8.184961381
8.184961381
8.184961381
8.184961381
8.184961381
8.184961381
8.184961381
8.184961381
8.184961381
8.184961381
8.184961381
8.184961381
8.184961381
8.184961381
8.184961381
8.184961381
8.184961381
8.184961381
8.184961381
8.184961381
8.184961381
8.184961381
8.184961381
8.184961381
8.184961381
8.184961381
8.184961381
8.184961381
8.184961381
8.184961381
8.184961381
8.184961381
8.184961381
8.184961381
8.184961381
8.184961381
8.184961381
8.184961381
8.20742092
8.20742092
8.20742092
8.20742092
8.20742092
8.20742092
8.20742092
8.20742092
8.20742092
8.20742092
8.20742092
8.20742092
8.20742092
8.20742092
8.20742092
8.20742092
8.20742092
8.20742092
8.20742092
8.20742092
8.20742092
8.20742092
8.20742092
8.20742092
8.20742092
8.20742092
8.20742092
8.20742092
8.20742092
8.20742092
8.20742092
8.20742092
8.20742092
8.20742092
8.20742092
8.20742092
8.20742092
8.20742092
8.20742092
8.20742092
8.20742092
8.20742092
8.20742092
8.20742092
8.20742092
8.20742092
8.20742092
8.20742092
8.20742092
8.20742092
8.229959475
8.229959475
8.229959475
8.229959475
8.229959475
8.229959475
8.229959475
8.229959475
8.229959475
8.229959475
8.229959475
8.229959475
8.229959475
8.229959475
8.229959475
8.229959475
8.229959475
8.229959475
8.229959475
8.229959475
8.229959475
8.229959475
8.229959475
8.229959475
8.229959475
8.229959475
8.229959475
8.229959475
8.229959475
8.229959475
8.229959475
8.229959475
8.229959475
8.229959475
8.229959475
8.229959475
8.229959475
8.229959475
8.229959475
8.229959475
8.229959475
8.229959475
8.229959475
8.229959475
8.229959475
8.229959475
8.229959475
8.229959475
8.229959475
8.229959475
8.25257745
8.25257745
8.25257745
8.25257745
8.25257745
8.25257745
8.25257745
8.25257745
8.25257745
8.25257745
8.25257745
8.25257745
8.25257745
8.25257745
8.25257745
8.25257745
8.25257745
8.25257745
8.25257745
8.25257745
8.25257745
8.25257745
8.25257745
8.25257745
8.25257745
8.25257745
8.25257745
8.25257745
8.25257745
8.25257745
8.25257745
8.25257745
8.25257745
8.25257745
8.25257745
8.25257745
8.25257745
8.25257745
8.25257745
8.25257745
8.25257745
8.25257745
8.25257745
8.25257745
8.25257745
8.25257745
8.25257745
8.25257745
8.25257745
8.25257745
8.275275272
8.275275272
8.275275272
8.275275272
8.275275272
8.275275272
8.275275272
8.275275272
8.275275272
8.275275272
8.275275272
8.275275272
8.275275272
8.275275272
8.275275272
8.275275272
8.275275272
8.275275272
8.275275272
8.275275272
8.275275272
8.275275272
8.275275272
8.275275272
8.275275272
8.275275272
8.275275272
8.275275272
8.275275272
8.275275272
8.275275272
8.275275272
8.275275272
8.275275272
8.275275272
8.275275272
8.275275272
8.275275272
8.275275272
8.275275272
8.275275272
8.275275272
8.275275272
8.275275272
8.275275272
8.275275272
8.275275272
8.275275272
8.275275272
8.275275272
8.298053366
8.298053366
8.298053366
8.298053366
8.298053366
8.298053366
8.298053366
8.298053366
8.298053366
8.298053366
8.298053366
8.298053366
8.298053366
8.298053366
8.298053366
8.298053366
8.298053366
8.298053366
8.298053366
8.298053366
8.298053366
8.298053366
8.298053366
8.298053366
8.298053366
8.298053366
8.298053366
8.298053366
8.298053366
8.298053366
8.298053366
8.298053366
8.298053366
8.298053366
8.298053366
8.298053366
8.298053366
8.298053366
8.298053366
8.298053366
8.298053366
8.298053366
8.298053366
8.298053366
8.298053366
8.298053366
8.298053366
8.298053366
8.298053366
8.298053366
8.320912157
8.320912157
8.320912157
8.320912157
8.320912157
8.320912157
8.320912157
8.320912157
8.320912157
8.320912157
8.320912157
8.320912157
8.320912157
8.320912157
8.320912157
8.320912157
8.320912157
8.320912157
8.320912157
8.320912157
8.320912157
8.320912157
8.320912157
8.320912157
8.320912157
8.320912157
8.320912157
8.320912157
8.320912157
8.320912157
8.320912157
8.320912157
8.320912157
8.320912157
8.320912157
8.320912157
8.320912157
8.320912157
8.320912157
8.320912157
8.320912157
8.320912157
8.320912157
8.320912157
8.320912157
8.320912157
8.320912157
8.320912157
8.320912157
8.320912157
8.343852075
8.343852075
8.343852075
8.343852075
8.343852075
8.343852075
8.343852075
8.343852075
8.343852075
8.343852075
8.343852075
8.343852075
8.343852075
8.343852075
8.343852075
8.343852075
8.343852075
8.343852075
8.343852075
8.343852075
8.343852075
8.343852075
8.343852075
8.343852075
8.343852075
8.343852075
8.343852075
8.343852075
8.343852075
8.343852075
8.343852075
8.343852075
8.343852075
8.343852075
8.343852075
8.343852075
8.343852075
8.343852075
8.343852075
8.343852075
8.343852075
8.343852075
8.343852075
8.343852075
8.343852075
8.343852075
8.343852075
8.343852075
8.343852075
8.343852075
8.366873554
8.366873554
8.366873554
8.366873554
8.366873554
8.366873554
8.366873554
8.366873554
8.366873554
8.366873554
8.366873554
8.366873554
8.366873554
8.366873554
8.366873554
8.366873554
8.366873554
8.366873554
8.366873554
8.366873554
8.366873554
8.366873554
8.366873554
8.366873554
8.366873554
8.366873554
8.366873554
8.366873554
8.366873554
8.366873554
8.366873554
8.366873554
8.366873554
8.366873554
8.366873554
8.366873554
8.366873554
8.366873554
8.366873554
8.366873554
8.366873554
8.366873554
8.366873554
8.366873554
8.366873554
8.366873554
8.366873554
8.366873554
8.366873554
8.366873554
8.389977036
8.389977036
8.389977036
8.389977036
8.389977036
8.389977036
8.389977036
8.389977036
8.389977036
8.389977036
8.389977036
8.389977036
8.389977036
8.389977036
8.389977036
8.389977036
8.389977036
8.389977036
8.389977036
8.389977036
8.389977036
8.389977036
8.389977036
8.389977036
8.389977036
8.389977036
8.389977036
8.389977036
8.389977036
8.389977036
8.389977036
8.389977036
8.389977036
8.389977036
8.389977036
8.389977036
8.389977036
8.389977036
8.389977036
8.389977036
8.389977036
8.389977036
8.389977036
8.389977036
8.389977036
8.389977036
8.389977036
8.389977036
8.389977036
8.389977036
8.413162945
8.413162945
8.413162945
8.413162945
8.413162945
8.413162945
8.413162945
8.413162945
8.413162945
8.413162945
8.413162945
8.413162945
8.413162945
8.413162945
8.413162945
8.413162945
8.413162945
8.413162945
8.413162945
8.413162945
8.413162945
8.413162945
8.413162945
8.413162945
8.413162945
8.413162945
8.413162945
8.413162945
8.413162945
8.413162945
8.413162945
8.413162945
8.413162945
8.413162945
8.413162945
8.413162945
8.413162945
8.413162945
8.413162945
8.413162945
8.413162945
8.413162945
8.413162945
8.413162945
8.413162945
8.413162945
8.413162945
8.413162945
8.413162945
8.413162945
8.43643173
8.43643173
8.43643173
8.43643173
8.43643173
8.43643173
8.43643173
8.43643173
8.43643173
8.43643173
8.43643173
8.43643173
8.43643173
8.43643173
8.43643173
8.43643173
8.43643173
8.43643173
8.43643173
8.43643173
8.43643173
8.43643173
8.43643173
8.43643173
8.43643173
8.43643173
8.43643173
8.43643173
8.43643173
8.43643173
8.43643173
8.43643173
8.43643173
8.43643173
8.43643173
8.43643173
8.43643173
8.43643173
8.43643173
8.43643173
8.43643173
8.43643173
8.43643173
8.43643173
8.43643173
8.43643173
8.43643173
8.43643173
8.43643173
8.43643173
8.459783838
8.459783838
8.459783838
8.459783838
8.459783838
8.459783838
8.459783838
8.459783838
8.459783838
8.459783838
8.459783838
8.459783838
8.459783838
8.459783838
8.459783838
8.459783838
8.459783838
8.459783838
8.459783838
8.459783838
8.459783838
8.459783838
8.459783838
8.459783838
8.459783838
8.459783838
8.459783838
8.459783838
8.459783838
8.459783838
8.459783838
8.459783838
8.459783838
8.459783838
8.459783838
8.459783838
8.459783838
8.459783838
8.459783838
8.459783838
8.459783838
8.459783838
8.459783838
8.459783838
8.459783838
8.459783838
8.459783838
8.459783838
8.459783838
8.459783838
8.483219715
8.483219715
8.483219715
8.483219715
8.483219715
8.483219715
8.483219715
8.483219715
8.483219715
8.483219715
8.483219715
8.483219715
8.483219715
8.483219715
8.483219715
8.483219715
8.483219715
8.483219715
8.483219715
8.483219715
8.483219715
8.483219715
8.483219715
8.483219715
8.483219715
8.483219715
8.483219715
8.483219715
8.483219715
8.483219715
8.483219715
8.483219715
8.483219715
8.483219715
8.483219715
8.483219715
8.483219715
8.483219715
8.483219715
8.483219715
8.483219715
8.483219715
8.483219715
8.483219715
8.483219715
8.483219715
8.483219715
8.483219715
8.483219715
8.483219715
8.506739814
8.506739814
8.506739814
8.506739814
8.506739814
8.506739814
8.506739814
8.506739814
8.506739814
8.506739814
8.506739814
8.506739814
8.506739814
8.506739814
8.506739814
8.506739814
8.506739814
8.506739814
8.506739814
8.506739814
8.506739814
8.506739814
8.506739814
8.506739814
8.506739814
8.506739814
8.506739814
8.506739814
8.506739814
8.506739814
8.506739814
8.506739814
8.506739814
8.506739814
8.506739814
8.506739814
8.506739814
8.506739814
8.506739814
8.506739814
8.506739814
8.506739814
8.506739814
8.506739814
8.506739814
8.506739814
8.506739814
8.506739814
8.506739814
8.506739814
8.530344589
8.530344589
8.530344589
8.530344589
8.530344589
8.530344589
8.530344589
8.530344589
8.530344589
8.530344589
8.530344589
8.530344589
8.530344589
8.530344589
8.530344589
8.530344589
8.530344589
8.530344589
8.530344589
8.530344589
8.530344589
8.530344589
8.530344589
8.530344589
8.530344589
8.530344589
8.530344589
8.530344589
8.530344589
8.530344589
8.530344589
8.530344589
8.530344589
8.530344589
8.530344589
8.530344589
8.530344589
8.530344589
8.530344589
8.530344589
8.530344589
8.530344589
8.530344589
8.530344589
8.530344589
8.530344589
8.530344589
8.530344589
8.530344589
8.530344589
8.554034507
8.554034507
8.554034507
8.554034507
8.554034507
8.554034507
8.554034507
8.554034507
8.554034507
8.554034507
8.554034507
8.554034507
8.554034507
8.554034507
8.554034507
8.554034507
8.554034507
8.554034507
8.554034507
8.554034507
8.554034507
8.554034507
8.554034507
8.554034507
8.554034507
8.554034507
8.554034507
8.554034507
8.554034507
8.554034507
8.554034507
8.554034507
8.554034507
8.554034507
8.554034507
8.554034507
8.554034507
8.554034507
8.554034507
8.554034507
8.554034507
8.554034507
8.554034507
8.554034507
8.554034507
8.554034507
8.554034507
8.554034507
8.554034507
8.554034507
8.577810013
8.577810013
8.577810013
8.577810013
8.577810013
8.577810013
8.577810013
8.577810013
8.577810013
8.577810013
8.577810013
8.577810013
8.577810013
8.577810013
8.577810013
8.577810013
8.577810013
8.577810013
8.577810013
8.577810013
8.577810013
8.577810013
8.577810013
8.577810013
8.577810013
8.577810013
8.577810013
8.577810013
8.577810013
8.577810013
8.577810013
8.577810013
8.577810013
8.577810013
8.577810013
8.577810013
8.577810013
8.577810013
8.577810013
8.577810013
8.577810013
8.577810013
8.577810013
8.577810013
8.577810013
8.577810013
8.577810013
8.577810013
8.577810013
8.577810013
8.601671579
8.601671579
8.601671579
8.601671579
8.601671579
8.601671579
8.601671579
8.601671579
8.601671579
8.601671579
8.601671579
8.601671579
8.601671579
8.601671579
8.601671579
8.601671579
8.601671579
8.601671579
8.601671579
8.601671579
8.601671579
8.601671579
8.601671579
8.601671579
8.601671579
8.601671579
8.601671579
8.601671579
8.601671579
8.601671579
8.601671579
8.601671579
8.601671579
8.601671579
8.601671579
8.601671579
8.601671579
8.601671579
8.601671579
8.601671579
8.601671579
8.601671579
8.601671579
8.601671579
8.601671579
8.601671579
8.601671579
8.601671579
8.601671579
8.601671579
8.625619675
8.625619675
8.625619675
8.625619675
8.625619675
8.625619675
8.625619675
8.625619675
8.625619675
8.625619675
8.625619675
8.625619675
8.625619675
8.625619675
8.625619675
8.625619675
8.625619675
8.625619675
8.625619675
8.625619675
8.625619675
8.625619675
8.625619675
8.625619675
8.625619675
8.625619675
8.625619675
8.625619675
8.625619675
8.625619675
8.625619675
8.625619675
8.625619675
8.625619675
8.625619675
8.625619675
8.625619675
8.625619675
8.625619675
8.625619675
8.625619675
8.625619675
8.625619675
8.625619675
8.625619675
8.625619675
8.625619675
8.625619675
8.625619675
8.625619675
8.64965477
8.64965477
8.64965477
8.64965477
8.64965477
8.64965477
8.64965477
8.64965477
8.64965477
8.64965477
8.64965477
8.64965477
8.64965477
8.64965477
8.64965477
8.64965477
8.64965477
8.64965477
8.64965477
8.64965477
8.64965477
8.64965477
8.64965477
8.64965477
8.64965477
8.64965477
8.64965477
8.64965477
8.64965477
8.64965477
8.64965477
8.64965477
8.64965477
8.64965477
8.64965477
8.64965477
8.64965477
8.64965477
8.64965477
8.64965477
8.64965477
8.64965477
8.64965477
8.64965477
8.64965477
8.64965477
8.64965477
8.64965477
8.64965477
8.64965477
8.673777341
8.673777341
8.673777341
8.673777341
8.673777341
8.673777341
8.673777341
8.673777341
8.673777341
8.673777341
8.673777341
8.673777341